1 	0.451351328259074 	-2.42861286636753e-17 	-0.0161494561432399 	0.0125038194764481 	-2.51743798076147e-17
1 	0.457856884621384 	-2.77555756156289e-17 	-0.0472375298857022 	0.0369659834386201 	1.04969959862195e-16
1 	0.464597494115859 	-2.77555756156289e-17 	-0.0752891158119861 	0.05926001211233 	6.51874118210997e-18
1 	0.471581531993916 	-3.46944695195361e-17 	-0.0961516558919155 	0.0761333084677798 	-3.48516992119771e-17
1 	0.478817663648872 	-4.16333634234434e-17 	-0.108156257511345 	0.0862138403247824 	-2.28623362815319e-17
1 	0.486314854099112 	-4.16333634234434e-17 	-0.113855681244404 	0.0914480578756558 	1.4614008010263e-17
1 	0.494082377743682 	-3.46944695195361e-17 	-0.116034879255511 	0.0939990758219207 	1.024451098106e-18
1 	0.502129828395864 	-3.12250225675825e-17 	-0.116267211240376 	0.0950874421678054 	-8.49421783701242e-19
1 	0.510467129600163 	-4.16333634234434e-17 	-0.115320888061589 	0.0953075956542789 	-1.02141932570148e-18
1 	0.519104545238184 	-5.55111512312578e-17 	-0.113581578280299 	0.0949580579506944 	5.22636992746555e-18
1 	0.528052690428786 	-6.24500451351651e-17 	-0.111256200505118 	0.0941997794496481 	-9.73957820353622e-18
1 	0.537322542727918 	-6.24500451351651e-17 	-0.108462268813378 	0.0931252834550622 	4.74443470612971e-18
1 	0.546925453633457 	-6.24500451351651e-17 	-0.105268697148539 	0.0917902213715074 	-3.7364427176716e-18
1 	0.556873160400326 	-6.24500451351651e-17 	-0.101715648001246 	0.0902288302875784 	7.477875507268e-18
1 	0.567177798171134 	-5.89805981832114e-17 	-0.0978246961967848 	0.0884620134282285 	-6.99428060209356e-18
1 	0.577851912427522 	-4.85722573273506e-17 	-0.0936041406088888 	0.0865017846049108 	-6.29055105901154e-17
1 	0.588908471767319 	-3.81639164714898e-17 	-0.0890516545012694 	0.0843537955742595 	-9.77161762349023e-16
1 	0.600360881012588 	-3.12250225675825e-17 	-0.0841553067604981 	0.0820187861752659 	9.59107548851199e-16
1 	0.612222994653594 	-2.42861286636753e-17 	-0.0788934351834751 	0.0794933894418473 	3.74952474458829e-17
1 	0.624509130633639 	-2.08166817117217e-17 	-0.0732335609391176 	0.0767705235196743 	2.85661619243385e-18
1 	0.637234084479704 	-1.73472347597681e-17 	-0.0671303511901629 	0.0738394985324784 	-5.86034727546381e-18
1 	0.650413143783826 	-1.73472347597681e-17 	-0.0605224932332555 	0.0706859110190015 	2.8379758571162e-18
1 	0.664062103040055 	-2.42861286636753e-17 	-0.0533281971788043 	0.0672913690445024 	-5.04728671394047e-18
1 	0.678197278841898 	-2.77555756156289e-17 	-0.0454388641003492 	0.0636330778388728 	-8.86532996933434e-16
1 	0.692835525445182 	-2.91650384398601e-17 	-0.0366955545117531 	0.0596788471920395 	8.62353539819524e-16
1 	0.707994250701264 	-3.78386558197441e-17 	-0.0268762807323352 	0.0553893317228718 	9.29517377822404e-18
1 	0.723691432365647 	-4.55364912443912e-17 	-0.0157257801834588 	0.050730647873843 	-2.83687671182167e-18
1 	0.739945634787164 	-4.64038529823796e-17 	-0.00287261452458364 	0.0456571914611839 	2.72318842673301e-18
1 	0.756776025983054 	-4.59701721133854e-17 	0.0121918890846937 	0.0401181293257168 	5.10822048442292e-20
1 	0.774202395105461 	-4.59701721133854e-17 	0.0301630249147676 	0.0340601387162761 	2.26771916833878e-20
1 	0.792245170305166 	-5.03069808033274e-17 	0.0519339948041921 	0.0274443971811944 	2.3451198951884e-20
1 	0.810925436998707 	-5.20417042793042e-17 	0.078558589594348 	0.0202766722929482 	3.72391282989713e-17
1 	0.830264956545436 	-5.29090660172926e-17 	0.11117588505581 	0.0126275710148113 	-1.46184542601096e-18
1 	0.850286185341601 	-5.3776427755281e-17 	0.150901946851231 	0.00464266338620105 	-9.79171045550528e-17
1 	0.871012294339098 	-4.33680868994202e-17 	0.198570478284968 	-0.00343169388837426 	-3.62304491929309e-18
1 	0.892467188997261 	-3.64291929955129e-17 	0.254329364522298 	-0.011236029667905 	6.24494651151967e-17
1 	0.914675529676922 	-3.81639164714898e-17 	0.317361684436238 	-0.0183363759892377 	2.03378707960496e-19
1 	0.937662752486865 	-4.33680868994202e-17 	0.385811931044283 	-0.0243052982764547 	2.28929851807927e-18
1 	0.961455090593968 	-4.5102810375397e-17 	0.456862057456805 	-0.0288131258208672 	-2.29349555910867e-18
1 	0.986079596009581 	-4.16333634234434e-17 	0.527050812348202 	-0.0317036914668748 	-2.85864792279348e-19
1 	1.01156416186612 	-4.5102810375397e-17 	0.592857435043947 	-0.0330419358166044 	1.78089908883997e-18
1 	1.03793754519955 	-4.85722573273506e-17 	0.651419590105894 	-0.0331038229908964 	-9.95675353992843e-19
1 	1.06522939025519 	-4.5102810375397e-17 	0.701116786448647 	-0.0322992182977634 	-2.57719518882574e-19
1 	1.09347025233648 	-4.5102810375397e-17 	0.741758394839732 	-0.0310543220639328 	1.97559165589497e-19
0.999999999999999 	1.12269162221858 	-3.81639164714898e-17 	0.774315350449308 	-0.0297065234159531 	4.18048432030737e-19
0.999999999999999 	1.1529259511513 	-3.12250225675825e-17 	0.800385585191031 	-0.0284552314377316 	-5.79596365444646e-19
0.999999999999999 	1.18420667647869 	-3.12250225675825e-17 	0.821670337571675 	-0.0273726780021337 	-4.60461258618821e-19
0.999999999999999 	1.20932909529518 	-2.77555756156289e-17 	0.835975241498817 	-0.0266364543353023 	2.66898283796416e-19
0.999999999999999 	1.22578615918077 	-3.12250225675825e-17 	0.844300935840918 	-0.026207798661814 	3.80582111361995e-19
1 	1.25005321751936 	-3.12250225675825e-17 	0.855404140988316 	-0.0256324873211583 	1.07860960250255e-19
1 	1.28469102414952 	-2.77555756156289e-17 	0.869668022923556 	-0.0248765658048745 	-1.58501060856732e-19
1 	1.3205186819877 	-2.42861286636753e-17 	0.882915360507069 	-0.0241345168703431 	-1.98658274710144e-19
1 	1.3575749113035 	-1.38777878078145e-17 	0.895458751567127 	-0.0233721074287574 	1.41239218747e-19
1 	1.39589958614917 	-1.04083408558608e-17 	0.90749414998751 	-0.022566381280931 	-1.95623693174421e-19
1 	1.43553376564998 	-1.38777878078145e-17 	0.919144242614914 	-0.021703679537436 	2.37093576011324e-19
1 	1.4765197263163 	-1.04083408558608e-17 	0.930485261455865 	-0.0207778123495824 	-2.72039642083227e-19
1 	1.51890099544962 	-6.93889390390723e-18 	0.941563457290399 	-0.0197885412203492 	3.68035531059424e-19
1 	1.56272238572095 	0 	0.952405312833635 	-0.0187402894709708 	-1.54385071233414e-20
1 	1.60803003100759 	1.04083408558608e-17 	0.963023949462945 	-0.0176410405873172 	1.54056773647061e-19
1 	1.65487142358123 	1.04083408558608e-17 	0.973423204745532 	-0.0165013997665183 	-2.740240670998e-19
1 	1.70329545274835 	0 	0.983600277360906 	-0.0153337870817558 	7.97373711455873e-21
1 	1.75335244505181 	-3.46944695195361e-18 	0.993547470629253 	-0.0141517445158443 	-6.74774244407053e-20
1 	1.80509420615134 	2.81892564846231e-18 	1.00325095631061 	-0.0129675512989552 	-7.00509758153752e-20
1 	1.85857406450905 	8.02309607639273e-18 	1.0126888165456 	-0.0117924454044559 	-1.22774647697723e-21
1 	1.91384691701544 	5.20417042793042e-18 	1.02184888938092 	-0.0106425181498187 	6.28944636767191e-20
1 	1.97096927670056 	-6.07153216591882e-18 	1.0306197276706 	-0.00956165608401227 	5.10340656399561e-21
1 	2.02024009608346 	-1.04083408558608e-17 	1.03774620418262 	-0.00868267107926111 	0
1 	2.06000503604194 	-1.04083408558608e-17 	1.04331241679131 	-0.00798832292950244 	0
1 	2.09836474743796 	-1.04083408558608e-17 	1.04833999755634 	-0.0073776954903293 	0
1 	2.13536888877257 	-1.04083408558608e-17 	1.05295116005379 	-0.00682535629385313 	0
1 	2.17106536369584 	-1.04083408558608e-17 	1.05717893961864 	-0.00632537904833608 	0
1 	2.20550038302044 	-1.04083408558608e-17 	1.06105239846464 	-0.00587349970412148 	0
1 	2.23871852454378 	-1.04083408558608e-17 	1.06459727100586 	-0.00546537491790849 	0
1 	2.27076279075613 	-1.04083408558608e-17 	1.06783638105119 	-0.0050969401877969 	0
1 	2.3016746645094 	-1.38777878078145e-17 	1.07078997842706 	-0.00476448855406618 	0
1 	2.33149416271872 	-2.08166817117217e-17 	1.07347603449638 	-0.00446464557838292 	0
1 	2.36025988816626 	-2.42861286636753e-17 	1.07591049708688 	-0.00419434720373729 	0
1 	2.38800907947441 	-2.42861286636753e-17 	1.07810750908649 	-0.00395081838185553 	0
1 	2.41477765931295 	-3.12250225675825e-17 	1.08007959579862 	-0.00373154986427608 	0
1 	2.44060028090272 	-3.81639164714898e-17 	1.08183782532528 	-0.00353427471509462 	0
1 	2.46551037287586 	-3.46944695195361e-17 	1.0833919455598 	-0.00335694564740364 	0
1 	2.48954018255081 	-2.77555756156289e-17 	1.08475050081165 	-0.00319771367783974 	-1.84705364256944e-16
1 	2.512720817678 	-2.42861286636753e-17 	1.08592093058126 	-0.00305490833031281 	-3.13601557535866e-15
1 	2.53508228671037 	-2.42861286636753e-17 	1.08690965254967 	-0.00292701946770421 	3.19849040654467e-15
1 	2.55665353765073 	-2.42861286636753e-17 	1.08772213144503 	-0.00281268072929493 	1.87916901625013e-16
1 	2.57746249552636 	-2.42861286636753e-17 	1.08836293508859 	-0.00271065449069683 	0
1 	2.59753609853934 	-1.73472347597681e-17 	1.08883577859677 	-0.00261981823008389 	-4.08886641133209e-16
1 	2.61690033293929 	-1.04083408558608e-17 	1.08914355741547 	-0.00253915216947716 	-3.66924952867993e-15
1 	2.63558026666389 	-1.04083408558608e-17 	1.089288369577 	-0.00246772805595455 	3.77629790253784e-15
1 	2.65360008179049 	-1.04083408558608e-17 	1.08927152729009 	-0.00240469895042122 	4.1849418153424e-16
1 	2.67098310584102 	-1.38777878078145e-17 	1.08909355768837 	-0.00234928989802511 	0
1 	2.68775184198056 	-2.08166817117217e-17 	1.08875419226233 	-0.00230078936246081 	0
1 	2.70392799814879 	-2.08166817117217e-17 	1.0882523441707 	-0.00225854131502878 	0
1 	2.71953251516198 	-1.38777878078145e-17 	1.08758607225644 	-0.00222193787762101 	0
1 	2.73458559382185 	-6.93889390390723e-18 	1.08675253016303 	-0.00219041242630874 	0
1 	2.74910672106653 	-6.93889390390723e-18 	1.08574789843702 	-0.002163433068638 	0
1 	2.76311469519732 	-1.04083408558608e-17 	1.08456729688939 	-0.00214049641295197 	0
1 	2.776627650214 	-6.93889390390723e-18 	1.08320467373683 	-0.00212112155200099 	0
1 	2.78966307929018 	0 	1.08165266711498 	-0.00210484418579122 	0
1 	2.80223785741904 	3.46944695195361e-18 	1.07990243339557 	-0.00209121081014436 	0
1 	2.81436826325886 	0 	1.07794343528001 	-0.00207977289803751 	0
1 	2.82607000020648 	0 	1.07576318079511 	-0.00207008100085171 	0
1 	2.83735821672614 	6.93889390390723e-18 	1.07334690196493 	-0.0020616786957735 	4.43218795161031e-19
1 	2.8482475259599 	1.04083408558608e-17 	1.07067715892841 	-0.00205409630582469 	5.42727126828528e-15
1 	2.85875202464506 	1.38777878078145e-17 	1.06773335142442 	-0.00204684432244097 	-5.70267219598642e-15
1 	2.86888531136304 	1.73472347597681e-17 	1.06449111461098 	-0.0020394064691763 	-5.58720580314437e-19
1 	2.87866050414343 	1.38777878078145e-17 	1.06092156981053 	-0.00203123236239928 	0
1 	2.88809025744591 	1.38777878078145e-17 	1.05699039255616 	-0.0020217297565208 	0
1 	2.89718677854204 	1.38777878078145e-17 	1.05265664971152 	-0.00201025641721628 	0
1 	2.90596184331818 	1.04083408558608e-17 	1.04787134375448 	-0.00199611176159912 	0
1 	2.91442681151997 	6.93889390390723e-18 	1.0425755846421 	-0.00197852855752435 	0
1 	2.922592641458 	3.46944695195361e-18 	1.03669828676823 	-0.0019566652138198 	0
1 	2.93046990419394 	3.46944695195361e-18 	1.03015325858425 	-0.00192959955808069 	0
1 	2.93806879722526 	6.93889390390723e-18 	1.02283551262034 	-0.00189632553327047 	0
1 	2.94539915768638 	1.04083408558608e-17 	1.01461656885259 	-0.00185575499503266 	0
1 	2.95247047508334 	1.04083408558608e-17 	1.00533844480341 	-0.00180672778699839 	0
1 	2.9592919035784 	1.21430643318376e-17 	0.994805901405546 	-0.0017480344887233 	0
1 	2.96587227384055 	1.38777878078145e-17 	0.982776302649833 	-0.00167845753504358 	0
1 	2.97222010447726 	1.04083408558608e-17 	0.968946061800794 	-0.00159683745153612 	0
1 	2.97834361306218 	3.46944695195361e-18 	0.952931905488606 	-0.00150217095792807 	0
1 	2.98425072677325 	0 	0.934243712670998 	-0.00139374538575254 	0
1 	2.98994909265477 	-3.46944695195361e-18 	0.912242694422676 	-0.00127130988966783 	1.5753395977969e-15
1 	2.99544608751689 	-6.93889390390723e-18 	0.886072524662415 	-0.00113528398548512 	1.33500209989557e-15
1 	3.00074882748522 	-6.93889390390723e-18 	0.854537919584471 	-0.000987018765241709 	-2.05593955361115e-15
1 	3.00586417721304 	-6.93889390390723e-18 	0.815873974003398 	-0.000828635067842552 	-1.81560205571258e-15
1 	3.01079875876789 	-6.93889390390723e-18 	0.767280151861427 	-0.000661606228654623 	-6.6904935277652e-15
1 	3.01555896020418 	0 	0.703926412001249 	-0.000490859106391826 	-5.80560103991358e-14
1 	3.02015094383281 	3.46944695195361e-18 	0.616862650599966 	-0.000350410097978913 	8.13429003376125e-14
1 	3.02458065419861 	0 	0.490721791314585 	-0.000238344531404126 	8.80656444253879e-15
1 	3.02885382577582 	0 	0.313744268414509 	-7.8977365970756e-05 	0
1 	3.03297599039165 	-6.93889390390723e-18 	0.106124985491298 	1.34367429158024e-05 	0
