3 	0.00391112967796271 	-1.90819582357449e-17 	1.124698197581 	0.00105827729349291 	447.290115409906
3 	0.0118766651674914 	-2.42861286636753e-17 	1.12467232460762 	0.00685521414660966 	138.388213533347
3 	0.0201340015485759 	-2.77555756156289e-17 	1.12459821929598 	0.0152323672053625 	43.9006274186841
3 	0.0286938283423949 	-3.12250225675825e-17 	1.12445572439998 	0.0220348948576813 	23.5513495662067
3 	0.0375672266585909 	-3.12250225675825e-17 	1.12426296567288 	0.0272234840569361 	16.0393102919721
3 	0.0467656835403032 	-2.42861286636753e-17 	1.12403988158639 	0.0314354179373225 	12.235823457225
3 	0.0563011068347007 	-1.56125112837913e-17 	1.1237951559212 	0.0350412795309387 	9.94377519348583
3 	0.0661858406082649 	-1.73472347597681e-17 	1.12353293387018 	0.0382406090016107 	8.41212603258964
3 	0.0764326811267816 	-1.90819582357449e-17 	1.12325659641365 	0.0411501609702189 	7.31748199102212
3 	0.0870548934207257 	-1.73472347597681e-17 	1.1229691511748 	0.0438439333995153 	6.49780228394103
3 	0.0980662284574838 	-1.56125112837913e-17 	1.12267326007393 	0.0463718749343449 	5.86286341685214
3 	0.109480940942647 	-8.67361737988404e-18 	1.12237137790801 	0.0487693925258355 	5.35839047851404
3 	0.121313807773417 	-3.46944695195361e-18 	1.12206585607783 	0.0510625689106084 	4.94974892885907
3 	0.133580147168011 	-5.20417042793042e-18 	1.12175899474001 	0.0532712130228295 	4.613787155502
3 	0.146295838495839 	-6.93889390390723e-18 	1.12145307066753 	0.0554107370253425 	4.3344401485701
3 	0.159477342834115 	0 	1.12115035340341 	0.0574933593914961 	4.10021386377018
3 	0.173141724277517 	1.38777878078145e-17 	1.12085311363557 	0.0595289007476768 	3.90267307495007
3 	0.18730667202848 	3.12250225675825e-17 	1.12056362606694 	0.0615253223109473 	3.73549413449844
3 	0.201990523296728 	4.16333634234434e-17 	1.12028416851932 	0.063489094685371 	3.59385035921015
3 	0.217212287037676 	3.81639164714898e-17 	1.12001701852341 	0.0654254501651765 	3.47400088015614
3 	0.232991668560441 	3.81639164714898e-17 	1.11976444832308 	0.0673385515279967 	3.37300806573059
3 	0.249349095037321 	4.5102810375397e-17 	1.11952871897272 	0.0692315980747016 	3.28853847627313
3 	0.266305741947753 	4.85722573273506e-17 	1.11931207419986 	0.0711068819730191 	3.21871936238224
3 	0.283883560490999 	4.16333634234434e-17 	1.11911673600678 	0.0729658029394072 	3.16203278809104
3 	0.30210530600303 	3.46944695195361e-17 	1.11894490474151 	0.0748088462408735 	3.11723559232104
3 	0.320994567414414 	2.77555756156289e-17 	1.11879875756354 	0.0766355270855471 	3.08329724890592
3 	0.340575797787321 	1.04083408558608e-17 	1.11868044150482 	0.078444298706404 	3.05934992569553
3 	0.360874345971201 	0 	1.11859207032916 	0.0802324241570921 	3.04464659075495
3 	0.381916489418091 	3.46944695195361e-18 	1.11853572877958 	0.0819958144464748 	3.03852424461216
3 	0.403729468200046 	1.04083408558608e-17 	1.1185134786278 	0.0837288309106411 	3.04036991727199
3 	0.426341520272733 	2.08166817117217e-17 	1.118527363433 	0.0854240509153378 	3.04958743202872
3 	0.441285719950775 	2.60208521396521e-17 	1.11855391952289 	0.0864945825415272 	3.058729832139
3 	0.453216730115852 	2.94902990916057e-17 	1.1185894958759 	0.0873057395878543 	3.06829448288561
3 	0.474081006202548 	3.12250225675825e-17 	1.11867083203192 	0.0886621638252834 	3.08753529181488
3 	0.499270241132364 	4.16333634234434e-17 	1.11880445208203 	0.0901791390274602 	3.11488033086796
3 	0.525382231502763 	6.24500451351651e-17 	1.11898206380983 	0.0916058234144318 	3.14669038603165
3 	0.552450780547767 	5.89805981832114e-17 	1.11920549403864 	0.0929217109147465 	3.18189374692092
3 	0.58051092981285 	4.5102810375397e-17 	1.11947640075191 	0.0941028804348428 	3.21918570026526
3 	0.609599004517911 	3.81639164714898e-17 	1.11979616704387 	0.0951219627064429 	3.25697807785517
3 	0.639752660582033 	3.81639164714898e-17 	1.12016575450622 	0.0959483682448706 	3.29335471659418
3 	0.671010933370887 	4.16333634234434e-17 	1.12058551310769 	0.0965489093864458 	3.3260422426164
3 	0.703414288229901 	4.16333634234434e-17 	1.12105495121087 	0.0968889776116218 	3.35241046959465
3 	0.737004672868606 	4.5102810375397e-17 	1.12157249062988 	0.0969344629042905 	3.36952517362628
3 	0.771825571663976 	5.89805981832114e-17 	1.12213528621956 	0.0966546051603058 	3.37428972637753
3 	0.807922061953054 	6.24500451351651e-17 	1.12273925205587 	0.0960258392519189 	3.36371215094917
3 	0.845340872387743 	5.55111512312578e-17 	1.12337938383092 	0.0950362927425792 	3.33527478011264
3 	0.88413044342731 	5.55111512312578e-17 	1.12405022418093 	0.0936900800164889 	3.2872737785895
3 	0.924340990046898 	5.55111512312578e-17 	1.12474611476215 	0.0920104149015031 	3.21896876549989
3 	0.966024566743242 	5.89805981832114e-17 	1.12546104458913 	0.0900409623829682 	3.13052542293593
3 	1.00923513492173 	6.24500451351651e-17 	1.12618830471631 	0.0878451772051736 	3.02289892345831
3 	1.05402863275206 	6.24500451351651e-17 	1.12692032904057 	0.0855032002918486 	2.89780843673199
3 	1.10046304758287 	6.59194920871187e-17 	1.12764891540729 	0.083105621384987 	2.75782076738834
3 	1.14859849100923 	6.93889390390723e-17 	1.12836574469325 	0.0807438319538735 	2.60643737861492
3 	1.19849727668995 	6.59194920871187e-17 	1.12906296239723 	0.0784980366887711 	2.44804481270485
3 	1.25022400101563 	6.04984812246911e-17 	1.12973327381717 	0.0764267310371666 	2.28766876158403
3 	1.30384562673186 	5.70290342727375e-17 	1.13036911423638 	0.0745617034206746 	2.13073853179616
3 	1.35943156962566 	5.46437894932694e-17 	1.13096780393831 	0.0728892946404523 	1.98184434158698
3 	1.41705378838763 	5.63785129692462e-17 	1.13152636629481 	0.0713744278075423 	1.84452249212921
3 	1.47678687776592 	6.24500451351651e-17 	1.13204411005732 	0.0699643364840281 	1.72086425967928
3 	1.53870816513278 	6.24500451351651e-17 	1.13252258769588 	0.0685968637886114 	1.61114255824559
3 	1.60289781058851 	6.07153216591882e-17 	1.13296335443335 	0.0672099932573046 	1.51490413832743
3 	1.66943891073267 	5.89805981832114e-17 	1.13336666109412 	0.0657488006733781 	1.4318769524217
3 	1.73841760623657 	5.20417042793042e-17 	1.133732349769 	0.0641651330372683 	1.36122664410796
3 	1.8099231933566 	4.85722573273506e-17 	1.13405959698366 	0.0624171672059816 	1.30164472003792
3 	1.88404823953249 	4.68375338513738e-17 	1.1343492094811 	0.0604705308279748 	1.2520317533797
3 	1.96088870322038 	1.73472347597681e-17 	1.13457183746751 	0.0584341385089943 	1.21349200202685
3 	2 	2.08166817117217e-17 	1.13465492826458 	0.0574393978805854 	1.19756707457006
3 	2.02024009608346 	2.42861286636753e-17 	1.13473242234262 	0.0566882541211703 	1.18854943089276
3 	2.06000503604194 	2.77555756156289e-17 	1.13484704116178 	0.0553160090193355 	1.17374216431556
3 	2.09836474743796 	2.77555756156289e-17 	1.13491740275176 	0.0540771249933464 	1.16358946857991
3 	2.13536888877257 	2.77555756156289e-17 	1.13497684158746 	0.0528466416386029 	1.15619626288503
3 	2.17106536369585 	2.77555756156289e-17 	1.13502211022971 	0.0516278404584987 	1.15139877910931
3 	2.20550038302044 	2.77555756156289e-17 	1.1350538289802 	0.0504235269803377 	1.14907584902401
3 	2.23871852454378 	2.42861286636753e-17 	1.13507330346334 	0.0492360599552012 	1.14914134631127
3 	2.27076279075613 	2.08166817117217e-17 	1.13508163714711 	0.048067384452847 	1.15153857497962
3 	2.30167466450941 	2.08166817117217e-17 	1.13507984777412 	0.0469190705912389 	1.15623623840461
3 	2.33149416271872 	1.73472347597681e-17 	1.1350689117653 	0.0457923547332009 	1.16322561322072
3 	2.36025988816627 	1.38777878078145e-17 	1.13504976000341 	0.0446881804718147 	1.17251864976452
3 	2.38800907947441 	1.38777878078145e-17 	1.13502327621391 	0.0436072378448198 	1.18414680644622
3 	2.41477765931296 	1.38777878078145e-17 	1.13499029741873 	0.0425499999029271 	1.19816048525982
3 	2.44060028090273 	1.38777878078145e-17 	1.13495161424993 	0.0415167561958806 	1.21462897909921
3 	2.46551037287587 	1.38777878078145e-17 	1.13490797121017 	0.0405076430361906 	1.23364087448578
3 	2.48954018255081 	1.38777878078145e-17 	1.13486006705232 	0.0395226705932255 	1.25530487907673
3 	2.51272081767801 	1.38777878078145e-17 	1.13480855531783 	0.0385617469903659 	1.27975106434894
3 	2.53508228671038 	1.38777878078145e-17 	1.1347540450457 	0.0376246996484079 	1.30713253196214
3 	2.55665353765073 	1.38777878078145e-17 	1.13469710165741 	0.0367112941555851 	1.3376275288813
3 	2.57746249552636 	1.38777878078145e-17 	1.13463824801354 	0.0358212509597092 	1.37144205248388
3 	2.59753609853934 	1.38777878078145e-17 	1.13457796563163 	0.0349542601788296 	1.40881300353191
3 	2.6169003329393 	1.38777878078145e-17 	1.13451669604966 	0.034109994818822 	1.45001196290767
3 	2.6355802666639 	1.38777878078145e-17 	1.13445484231636 	0.0332881226730584 	1.49534968823966
3 	2.6536000817905 	1.38777878078145e-17 	1.13439277058769 	0.0324883171630492 	1.54518144986068
3 	2.67098310584103 	1.73472347597681e-17 	1.13433081180752 	0.0317102673610333 	1.59991335291016
3 	2.68775184198056 	2.08166817117217e-17 	1.13426926344995 	0.0309536874164128 	1.66000982491358
3 	2.70392799814879 	2.08166817117217e-17 	1.13420839130032 	0.0302183255875233 	1.72600248711183
3 	2.71953251516198 	2.08166817117217e-17 	1.13414843125196 	0.0295039730576318 	1.79850067465784
3 	2.73458559382185 	2.08166817117217e-17 	1.13408959109631 	0.0288104726876433 	1.87820392729675
3 	2.74910672106653 	2.08166817117217e-17 	1.13403205228301 	0.0281377278253001 	1.96591684036022
3 	2.76311469519732 	2.08166817117217e-17 	1.13397597162786 	0.0274857112481063 	2.06256674826873
3 	2.776627650214 	2.08166817117217e-17 	1.13392148294519 	0.0268544742598821 	2.16922481212227
3 	2.78966307929018 	2.08166817117217e-17 	1.13386869858194 	0.0262441558821356 	2.28713120279851
3 	2.80223785741904 	1.73472347597681e-17 	1.13381771082934 	0.025654991972671 	2.41772521542278
3 	2.81436826325886 	1.38777878078145e-17 	1.13376859318919 	0.0250873239539343 	2.56268132535215
3 	2.82607000020648 	1.38777878078145e-17 	1.13372140147078 	0.0245416066288629 	2.72395240686165
3 	2.83735821672614 	1.38777878078145e-17 	1.13367617469722 	0.0240184142863193 	2.9038215934413
3 	2.84824752595991 	1.38777878078145e-17 	1.1336329358021 	0.0235184439338006 	3.10496457828146
3 	2.85875202464507 	1.38777878078145e-17 	1.1335916921051 	0.0230425140246549 	3.33052456028501
3 	2.86888531136304 	1.38777878078145e-17 	1.13355243556507 	0.0225915564572285 	3.58420257800715
3 	2.87866050414343 	1.38777878078145e-17 	1.13351514282709 	0.0221665989111592 	3.87036671715936
3 	2.88809025744591 	1.38777878078145e-17 	1.13347977510477 	0.021768733767311 	4.19418476046888
3 	2.89718677854204 	1.38777878078145e-17 	1.13344627797256 	0.0213990689782968 	4.56178650595541
3 	2.90596184331819 	1.38777878078145e-17 	1.13341458118472 	0.0210586554014539 	4.98046461568687
3 	2.91442681151997 	1.38777878078145e-17 	1.1333845986822 	0.0207483844032297 	5.45892716013223
3 	2.92259264145801 	1.38777878078145e-17 	1.13335622899061 	0.0204688491462815 	6.00762214699472
3 	2.93046990419395 	1.38777878078145e-17 	1.13332935623764 	0.0202201630019329 	6.6391661817775
3 	2.93806879722526 	1.73472347597681e-17 	1.13330385200759 	0.0200017289674469 	7.36892916973211
3 	2.94539915768638 	2.08166817117217e-17 	1.13327957819423 	0.0198119544317645 	8.21585994311748
3 	2.95247047508335 	2.08166817117217e-17 	1.13325639088878 	0.0196479050693423 	9.20369301709511
3 	2.9592919035784 	2.08166817117217e-17 	1.13323414515594 	0.019504887840638 	10.362770738225
3 	2.96587227384055 	2.08166817117217e-17 	1.13321270031053 	0.0193759419519542 	11.7328789153288
3 	2.97222010447726 	2.08166817117217e-17 	1.13319192506383 	0.0192511909049008 	13.3677896842867
3 	2.97834361306218 	2.08166817117217e-17 	1.13317170170457 	0.0191169551545079 	15.3427640555708
3 	2.98425072677325 	2.08166817117217e-17 	1.13315192768044 	0.0189544171367493 	17.7673812203563
3 	2.98994909265477 	2.08166817117217e-17 	1.13313251008167 	0.0187374114806737 	20.8084245449665
3 	2.99544608751689 	2.08166817117217e-17 	1.13311334872578 	0.018428448948725 	24.7328996992532
3 	3.00074882748522 	2.08166817117217e-17 	1.13309432860068 	0.0179710198106803 	29.9947047439613
3 	3.00586417721304 	2.08166817117217e-17 	1.1330752953948 	0.0172736808183111 	37.4242727563293
3 	3.01079875876789 	2.42861286636753e-17 	1.13305540054103 	0.016175286292787 	48.6899135746115
3 	3.01555896020418 	2.77555756156289e-17 	1.13303100077108 	0.0143698053541509 	67.5953043751308
3 	3.02015094383282 	2.77555756156289e-17 	1.13299771295542 	0.0113215681153465 	104.675147641746
3 	3.02458065419862 	2.77555756156289e-17 	1.13296050912905 	0.00688956272202509 	203.116901515227
3 	3.02885382577583 	2.77555756156289e-17 	1.13293289051557 	0.00265264538585969 	696.240628353235
