3 	0.00391112967796271 	-1.90819582357449e-17 	1.03156908520197 	6.15952291913867e-05 	445.871230186513
3 	0.0118766651674914 	-2.42861286636753e-17 	1.03157040882369 	0.000626443838026673 	128.048142282817
3 	0.0201340015485759 	-2.77555756156289e-17 	1.03156844422121 	0.00240200510180636 	34.2810546778276
3 	0.0286938283423949 	-3.12250225675825e-17 	1.03156091284966 	0.00455885285911579 	15.5875367790767
3 	0.0375672266585909 	-3.12250225675825e-17 	1.0315480466654 	0.00645418312922174 	9.54079781672667
3 	0.0467656835403032 	-2.42861286636753e-17 	1.03152970994392 	0.00805090610728429 	6.8981066169543
3 	0.0563011068347007 	-1.56125112837913e-17 	1.03150658307736 	0.00943734874165169 	5.4642249766666
3 	0.0661858406082649 	-1.73472347597681e-17 	1.03147941066408 	0.0106808671897149 	4.57087238576782
3 	0.0764326811267816 	-1.90819582357449e-17 	1.03144867145632 	0.0118241345577556 	3.96268496382214
3 	0.0870548934207257 	-1.73472347597681e-17 	1.03141468105483 	0.0128946819999603 	3.52315354206067
3 	0.0980662284574838 	-1.56125112837913e-17 	1.03137767900462 	0.0139111456578431 	3.19187426209563
3 	0.109480940942647 	-8.67361737988404e-18 	1.03133785788516 	0.0148867477795102 	2.93446724868667
3 	0.121313807773417 	-3.46944695195361e-18 	1.03129537727188 	0.0158312632937421 	2.72993785182784
3 	0.133580147168011 	-5.20417042793042e-18 	1.03125037443756 	0.0167521784423351 	2.56474610360918
3 	0.146295838495839 	-6.93889390390723e-18 	1.03120297239559 	0.0176554040175837 	2.42977430678226
3 	0.159477342834115 	0 	1.03115328613207 	0.01854573245773 	2.31866632599681
3 	0.173141724277517 	1.38777878078145e-17 	1.03110142806006 	0.0194271413669635 	2.22686570630196
3 	0.18730667202848 	3.12250225675825e-17 	1.0310475134488 	0.020303001343327 	2.15103223219138
3 	0.201990523296728 	4.16333634234434e-17 	1.03099166634433 	0.0211762221721151 	2.08867413084965
3 	0.217212287037676 	3.81639164714898e-17 	1.03093402639306 	0.0220493581951603 	2.03790861568098
3 	0.232991668560441 	3.81639164714898e-17 	1.03087475701205 	0.0229246860423897 	1.99730176138112
3 	0.249349095037321 	4.5102810375397e-17 	1.03081405537921 	0.023804263396579 	1.96575910740775
3 	0.266305741947753 	4.85722573273506e-17 	1.03075216474544 	0.0246899747336164 	1.94244973662802
3 	0.283883560490999 	4.16333634234434e-17 	1.03068938963932 	0.0255835683210797 	1.92675313443725
3 	0.30210530600303 	3.46944695195361e-17 	1.03062611462263 	0.0264866877651921 	1.9182220581526
3 	0.320994567414414 	2.77555756156289e-17 	1.03056282736048 	0.0274009008390273 	1.91655707374695
3 	0.340575797787321 	1.04083408558608e-17 	1.03050014689562 	0.0283277280666609 	1.92158996775701
3 	0.360874345971201 	0 	1.03043885813483 	0.0292686734944829 	1.93327426534252
3 	0.381916489418091 	3.46944695195361e-18 	1.03037995348108 	0.0302252601943591 	1.95168178010862
3 	0.403729468200046 	1.04083408558608e-17 	1.03032468250637 	0.0311990732664105 	1.977004598812
3 	0.426341520272733 	2.08166817117217e-17 	1.03027461361954 	0.0321918133976305 	2.0095622185809
3 	0.441285719950775 	2.60208521396521e-17 	1.03024551635539 	0.0328405672521854 	2.03406373093449
3 	0.453216730115852 	2.94902990916057e-17 	1.03022608092424 	0.0333527208596843 	2.05613813200709
3 	0.474081006202548 	3.12250225675825e-17 	1.03019817682939 	0.0342414108603378 	2.0982124629624
3 	0.499270241132364 	4.16333634234434e-17 	1.03017696124434 	0.035302914632199 	2.15570504819032
3 	0.525382231502763 	6.24500451351651e-17 	1.03017127646093 	0.0363927985780135 	2.2232499504713
3 	0.552450780547767 	5.89805981832114e-17 	1.03018826536928 	0.037514721856071 	2.30205853626135
3 	0.58051092981285 	4.5102810375397e-17 	1.03023912121805 	0.0386748770299315 	2.39377381189575
3 	0.609599004517911 	3.81639164714898e-17 	1.03032902021924 	0.0398867353289286 	2.50089433912565
3 	0.639752660582033 	3.81639164714898e-17 	1.03046614438491 	0.0411664050555173 	2.62587464532873
3 	0.671010933370887 	4.16333634234434e-17 	1.03066580151818 	0.0425029996891037 	2.76697243418927
3 	0.703414288229901 	4.16333634234434e-17 	1.03093294951465 	0.0438317538783626 	2.91432977305243
3 	0.737004672868606 	4.5102810375397e-17 	1.03126991765878 	0.0450514464878157 	3.05259159791153
3 	0.771825571663976 	5.89805981832114e-17 	1.03167610710112 	0.046057885108675 	3.16825148880416
3 	0.807922061953054 	6.24500451351651e-17 	1.03214429885634 	0.0467660592944663 	3.25403612818582
3 	0.845340872387743 	5.55111512312578e-17 	1.0326630944388 	0.0471161270646266 	3.30748943101752
3 	0.88413044342731 	5.55111512312578e-17 	1.0332224969864 	0.0470714496226894 	3.32800127372608
3 	0.924340990046898 	5.55111512312578e-17 	1.03381840834803 	0.0466144702353067 	3.31498451335764
3 	0.966024566743242 	5.89805981832114e-17 	1.03445374254334 	0.0457430253532379 	3.26708730031533
3 	1.00923513492173 	6.24500451351651e-17 	1.0351364399905 	0.0444717946486778 	3.18220450016071
3 	1.05402863275206 	6.24500451351651e-17 	1.03587635977431 	0.0428431740085292 	3.05854906788299
3 	1.10046304758287 	6.59194920871187e-17 	1.03668267133208 	0.0409438541901231 	2.89691654931603
3 	1.14859849100923 	6.93889390390723e-17 	1.03755948915034 	0.0389105645657163 	2.70329609330932
3 	1.19849727668995 	6.59194920871187e-17 	1.03849846890157 	0.0369013591045199 	2.48929844198677
3 	1.25022400101563 	6.04984812246911e-17 	1.03954530640942 	0.0350265390317455 	2.26760950865639
3 	1.30384562673186 	5.70290342727375e-17 	1.04066276185439 	0.0333666356496836 	2.05010759489371
3 	1.35943156962566 	5.46437894932694e-17 	1.04176154509932 	0.0319490551141692 	1.84662023035331
3 	1.41705378838763 	5.63785129692462e-17 	1.04285590630424 	0.0307520392414857 	1.66637063072118
3 	1.47678687776592 	6.24500451351651e-17 	1.04394463291634 	0.0297070044241336 	1.51356422983552
3 	1.53870816513278 	6.24500451351651e-17 	1.0450299131578 	0.0287202061329396 	1.38407083342234
3 	1.60289781058851 	6.07153216591882e-17 	1.04611496919371 	0.0277000489745938 	1.27004824227913
3 	1.66943891073267 	5.89805981832114e-17 	1.04720025211043 	0.0265804528099328 	1.16692151919148
3 	1.73841760623657 	5.20417042793042e-17 	1.04828173054788 	0.0253307151999701 	1.0743528150717
3 	1.8099231933566 	4.85722573273506e-17 	1.04935259385405 	0.0239464812797405 	0.99188151274465
3 	1.88404823953249 	4.68375338513738e-17 	1.05040539498723 	0.0224408157963994 	0.918095425034378
3 	1.96088870322038 	1.73472347597681e-17 	1.05136768755931 	0.0209331061059341 	0.855258473666777
3 	2 	2.08166817117217e-17 	1.05180200059977 	0.0202164845349083 	0.827697175281963
3 	2.02024009608346 	2.42861286636753e-17 	1.05211178284607 	0.0197044456377989 	0.810239420359028
3 	2.06000503604194 	2.77555756156289e-17 	1.05264535787147 	0.0187879951921529 	0.780231609661067
3 	2.09836474743796 	2.77555756156289e-17 	1.05307983303065 	0.0179988792386913 	0.756793058126132
3 	2.13536888877257 	2.77555756156289e-17 	1.05348492933391 	0.0172494214999344 	0.736574406063364
3 	2.17106536369585 	2.77555756156289e-17 	1.05385830848278 	0.016539669638979 	0.71938135652897
3 	2.20550038302044 	2.77555756156289e-17 	1.05420193727179 	0.015868920512435 	0.705043298219011
3 	2.23871852454378 	2.42861286636753e-17 	1.05451794738531 	0.015235950893447 	0.693412774251084
3 	2.27076279075613 	2.08166817117217e-17 	1.05480824580235 	0.0146391991917471 	0.684365922710728
3 	2.30167466450941 	2.08166817117217e-17 	1.05507463573473 	0.0140769078311672 	0.677803207074326
3 	2.33149416271872 	1.73472347597681e-17 	1.05531883281275 	0.0135472309439009 	0.673650041394069
3 	2.36025988816627 	1.38777878078145e-17 	1.05554246018494 	0.0130483133503126 	0.671857233347931
3 	2.38800907947441 	1.38777878078145e-17 	1.0557470495518 	0.0125783467643287 	0.672401307398719
3 	2.41477765931296 	1.38777878078145e-17 	1.05593404382731 	0.0121356084456685 	0.675284812814331
3 	2.44060028090273 	1.38777878078145e-17 	1.05610480012485 	0.0117184866282394 	0.680536721317032
3 	2.46551037287587 	1.38777878078145e-17 	1.05626059301321 	0.0113254961851892 	0.68821300293034
3 	2.48954018255081 	1.38777878078145e-17 	1.05640261791773 	0.0109552872175793 	0.698397448448456
3 	2.51272081767801 	1.38777878078145e-17 	1.05653199452944 	0.0106066485990597 	0.711202788173491
3 	2.53508228671038 	1.38777878078145e-17 	1.05664977012456 	0.0102785079707658 	0.726772140816736
3 	2.55665353765073 	1.38777878078145e-17 	1.05675692273013 	0.00996992924522895 	0.74528081377908
3 	2.57746249552636 	1.38777878078145e-17 	1.05685436409817 	0.00968010832887112 	0.766938465967763
3 	2.59753609853934 	1.38777878078145e-17 	1.05694294247392 	0.00940836749448357 	0.791991636586907
3 	2.6169003329393 	1.38777878078145e-17 	1.05702344516253 	0.00915414861609648 	0.820726638233015
3 	2.6355802666639 	1.38777878078145e-17 	1.05709660091419 	0.00891700531115641 	0.853472811274862
3 	2.6536000817905 	1.38777878078145e-17 	1.05716308215993 	0.0086965939157981 	0.890606141177933
3 	2.67098310584103 	1.73472347597681e-17 	1.05722350713903 	0.00849266314946664 	0.932553254789684
3 	2.68775184198056 	2.08166817117217e-17 	1.05727844196496 	0.00830504231008869 	0.979795840751104
3 	2.70392799814879 	2.08166817117217e-17 	1.05732840267991 	0.0081336278872662 	1.03287558959141
3 	2.71953251516198 	2.08166817117217e-17 	1.05737385734738 	0.00797836859458394 	1.09239982789946
3 	2.73458559382185 	2.08166817117217e-17 	1.05741522822876 	0.00783924900411392 	1.15904813502266
3 	2.74910672106653 	2.08166817117217e-17 	1.05745289408248 	0.00771627220754278 	1.23358038450393
3 	2.76311469519732 	2.08166817117217e-17 	1.05748719261258 	0.00760944220496284 	1.3168468457477
3 	2.776627650214 	2.08166817117217e-17 	1.05751842307891 	0.00751874699205286 	1.40980120701771
3 	2.78966307929018 	2.08166817117217e-17 	1.05754684906294 	0.00744414352000122 	1.51351762329329
3 	2.80223785741904 	1.73472347597681e-17 	1.05757270136386 	0.00738554577154399 	1.62921312882342
3 	2.81436826325886 	1.38777878078145e-17 	1.05759618098161 	0.0073428170672212 	1.75827695839354
3 	2.82607000020648 	1.38777878078145e-17 	1.05761746212846 	0.00731576734839543 	1.90230847222953
3 	2.83735821672614 	1.38777878078145e-17 	1.05763669520292 	0.00730415557951878 	2.06316547168685
3 	2.84824752595991 	1.38777878078145e-17 	1.05765400965961 	0.00730769662576712 	2.24302474832206
3 	2.85875202464507 	1.38777878078145e-17 	1.05766951671877 	0.0073260710977857 	2.44445678723354
3 	2.86888531136304 	1.38777878078145e-17 	1.05768331187628 	0.00735893585134836 	2.67051675300044
3 	2.87866050414343 	1.38777878078145e-17 	1.05769547720009 	0.00740593223454894 	2.92485438759698
3 	2.88809025744591 	1.38777878078145e-17 	1.0577060834257 	0.00746668892426923 	3.21184648988273
3 	2.89718677854204 	1.38777878078145e-17 	1.05771519188199 	0.00754081639927799 	3.53675760048696
3 	2.90596184331819 	1.38777878078145e-17 	1.05772285632753 	0.00762789085805282 	3.90593797692414
3 	2.91442681151997 	1.38777878078145e-17 	1.05772912501855 	0.00772742683231423 	4.32707386514348
3 	2.92259264145801 	1.38777878078145e-17 	1.0577340426701 	0.00783884012987844 	4.80951498036273
3 	2.93046990419395 	1.38777878078145e-17 	1.05773764556873 	0.00796140658288096 	5.36472078279335
3 	2.93806879722526 	1.73472347597681e-17 	1.05773996221474 	0.00809422084774075 	6.00693902465422
3 	2.94539915768638 	2.08166817117217e-17 	1.05774108980732 	0.0082360124606646 	6.75505025062382
3 	2.95247047508335 	2.08166817117217e-17 	1.05774121217279 	0.00838484263315767 	7.63490247287108
3 	2.9592919035784 	2.08166817117217e-17 	1.05774040047681 	0.00853720290389104 	8.67859953242279
3 	2.96587227384055 	2.08166817117217e-17 	1.05773854657716 	0.00868660875860357 	9.9226213954468
3 	2.97222010447726 	2.08166817117217e-17 	1.05773555604773 	0.00882313510378854 	11.4104064056576
3 	2.97834361306218 	2.08166817117217e-17 	1.05773144421926 	0.00893354587245873 	13.1995782936564
3 	2.98425072677325 	2.08166817117217e-17 	1.05772630191732 	0.00900080695318443 	15.3732685152993
3 	2.98994909265477 	2.08166817117217e-17 	1.05772027264193 	0.0090025668246179 	18.061060124708
3 	2.99544608751689 	2.08166817117217e-17 	1.05771355198733 	0.00890795916569492 	21.4740451115292
3 	3.00074882748522 	2.08166817117217e-17 	1.05770639966713 	0.00867165052070712 	25.9641449155229
3 	3.00586417721304 	2.08166817117217e-17 	1.0576991468638 	0.00822315068774106 	32.1518230531036
3 	3.01079875876789 	2.42861286636753e-17 	1.05769218559479 	0.00744954165440578 	41.2310288161915
3 	3.01555896020418 	2.77555756156289e-17 	1.05768599692126 	0.00618056246344576 	55.8495802813181
3 	3.02015094383282 	2.77555756156289e-17 	1.05768113210052 	0.00427123678809746 	83.8887386601248
3 	3.02458065419862 	2.77555756156289e-17 	1.05767785311697 	0.00210792895922108 	164.874581277768
3 	3.02885382577583 	2.77555756156289e-17 	1.05767584839201 	0.000608944808450249 	655.554904625402
