6 	0.00391112967796271 	0 	1.27179625148144 	0.000653041989567678 	447.367276431357 	0.00571333895982495
6 	0.0118766651674914 	0 	1.2717926203399 	0.00449482323695726 	138.901445210196 	0.0162286940112378
6 	0.020134001548576 	-1.38777878078145e-17 	1.27177959192469 	0.0108960120632261 	43.9034076735971 	0.0179337903809645
6 	0.0286938283423949 	-3.12250225675825e-17 	1.27174927037389 	0.0163466465049449 	23.2246926615299 	0.0156992025110418
6 	0.0375672266585909 	-3.12250225675825e-17 	1.27170135543863 	0.0205604331118332 	15.6408289007937 	0.0136084761931958
6 	0.0467656835403032 	-3.12250225675825e-17 	1.27164164126263 	0.0239980513506598 	11.8452372207362 	0.0121195753202764
6 	0.0563011068347007 	-3.46944695195361e-17 	1.27157324043618 	0.0269523091073018 	9.57442198933316 	0.0110374821169584
6 	0.0661858406082649 	-3.12250225675825e-17 	1.27149708874062 	0.0295825036816002 	8.06160247868118 	0.0102172927685265
6 	0.0764326811267816 	-3.46944695195361e-17 	1.27141371499907 	0.031981703427924 	6.98032812816427 	0.00957359885435503
6 	0.0870548934207257 	-3.81639164714898e-17 	1.27132358282759 	0.0342086860673655 	6.16859069635662 	0.00905494548959003
6 	0.0980662284574838 	-3.12250225675825e-17 	1.27122705885761 	0.0363029803158862 	5.53686379547025 	0.00862878391691451
6 	0.109480940942647 	-3.12250225675825e-17 	1.27112443088239 	0.0382925087017918 	5.03160108889425 	0.00827354468324593
6 	0.121313807773417 	-3.81639164714898e-17 	1.27101594027758 	0.0401977724324578 	4.6187767896147 	0.00797435291578408
6 	0.133580147168011 	-4.16333634234434e-17 	1.27090180029561 	0.0420342919685053 	4.27571082831086 	0.00772060211244079
6 	0.146295838495839 	-4.16333634234434e-17 	1.27078220539598 	0.0438141056756488 	3.98668972666094 	0.0075045148867772
6 	0.159477342834115 	-4.16333634234434e-17 	1.27065733671149 	0.0455467293122368 	3.74047366867429 	0.00732025237887797
6 	0.173141724277517 	-4.16333634234434e-17 	1.27052736501244 	0.0472397910994467 	3.52880458144829 	0.00716334215379253
6 	0.18730667202848 	-4.5102810375397e-17 	1.27039245162456 	0.0488994629058782 	3.34547511157766 	0.0070302982616903
6 	0.201990523296728 	-4.5102810375397e-17 	1.27025274763423 	0.0505307581982832 	3.18572656399905 	0.00691836122697768
6 	0.217212287037676 	-5.20417042793042e-17 	1.27010839158432 	0.0521377397111896 	3.04584742147644 	0.00682531509394533
6 	0.232991668560441 	-5.89805981832114e-17 	1.26995950574637 	0.0537236637518034 	2.92289832667175 	0.00674935520612056
6 	0.249349095037321 	-5.20417042793042e-17 	1.26980619098151 	0.0552910784259319 	2.81451914621297 	0.00668899004773598
6 	0.266305741947753 	-5.20417042793042e-17 	1.26964852015499 	0.0568418870978212 	2.71879067878365 	0.00664296627764792
6 	0.283883560490999 	-4.85722573273506e-17 	1.26948653003797 	0.0583773845883451 	2.63413355681128 	0.00661020966985575
6 	0.30210530600303 	-4.85722573273506e-17 	1.26932021160752 	0.0598982711331332 	2.55923295913359 	0.00658977694348744
6 	0.320994567414414 	-4.85722573273506e-17 	1.26914949864151 	0.0614046474816127 	2.49298153896487 	0.00658081493501909
6 	0.340575797787321 	-4.16333634234434e-17 	1.26897425449757 	0.062895993436586 	2.43443539301481 	0.00658252454133035
6 	0.360874345971201 	-4.16333634234434e-17 	1.26879425696356 	0.064371131446404 	2.38277948092088 	0.00659412753006946
6 	0.381916489418091 	-4.85722573273506e-17 	1.2686091810737 	0.0658281764745241 	2.33729996141183 	0.00661483479204463
6 	0.403729468200046 	-5.20417042793042e-17 	1.26841857979827 	0.0672644732369869 	2.29736163251759 	0.00664381497824991
6 	0.426341520272733 	-4.85722573273506e-17 	1.26822186254039 	0.0686765220012552 	2.26238916583212 	0.00668016277853974
6 	0.441285719951471 	-4.16333634234434e-17 	1.26809205499999 	0.0695728767122289 	2.24197964933521 	0.00670662302153918
6 	0.453216730116548 	-3.81639164714898e-17 	1.26798848681872 	0.070256962207219 	2.22773584785298 	0.00672940550187291
6 	0.474081006202548 	-4.5102810375397e-17 	1.2678070283585 	0.0714098760889699 	2.20518375978085 	0.00677070189915445
6 	0.499270241132363 	-4.5102810375397e-17 	1.26758680801647 	0.0727193255714639 	2.18199119781336 	0.00682247698092972
6 	0.525382231502763 	-2.77555756156289e-17 	1.26735622831373 	0.0739806457342591 	2.16178644377792 	0.00687665574924682
6 	0.552450780547767 	-1.04083408558608e-17 	1.26711360115472 	0.0751848389149861 	2.14409323797346 	0.0069314816419863
6 	0.58051092981285 	-3.46944695195361e-18 	1.26685692655442 	0.0763215341276271 	2.12842547734753 	0.0069849319990649
6 	0.609599004517911 	6.93889390390723e-18 	1.26658385988452 	0.0773789305242664 	2.11428014108392 	0.00703469531399995
6 	0.639752660582033 	1.38777878078145e-17 	1.26629167956897 	0.0783437755954002 	2.10113171173379 	0.00707815838225963
6 	0.671010933370887 	1.04083408558608e-17 	1.26597725642809 	0.0792013932392057 	2.08842845001149 	0.0071124080101041
6 	0.703414288229901 	1.38777878078145e-17 	1.2656370262176 	0.079935779451581 	2.07559100915342 	0.00713425279716978
6 	0.737004672868607 	2.08166817117217e-17 	1.26526696730711 	0.0805297855109555 	2.06201398742826 	0.00714027107384677
6 	0.771825571663977 	2.08166817117217e-17 	1.26486258588891 	0.0809654095763731 	2.04707109745473 	0.0071268910955915
6 	0.807922061953054 	2.25514051876985e-17 	1.26441891158597 	0.0812242168117374 	2.03012465313003 	0.00709050873680591
6 	0.845340872387743 	2.77555756156289e-17 	1.26393050681589 	0.0812879045447076 	2.01054000641477 	0.00702764581704777
6 	0.884130443427309 	2.94902990916057e-17 	1.26339149372507 	0.0811390215160482 	1.98770536898632 	0.0069351484980244
6 	0.924340990046898 	3.12250225675825e-17 	1.26279560288198 	0.0807618379859162 	1.96105709025503 	0.00681041973170044
6 	0.966024566743242 	3.46944695195361e-17 	1.26213624813411 	0.0801433456866917 	1.93010990645053 	0.00665167265831893
6 	1.00923513492173 	3.20923843055709e-17 	1.26140663200167 	0.0792743434375655 	1.89449092485578 	0.00645818379502817
6 	1.05402863275205 	3.03576608295941e-17 	1.26059988559563 	0.0781505369840201 	1.85397520691123 	0.00623051711525268
6 	1.10046304758287 	2.90566182226115e-17 	1.25970924617579 	0.0767735532591661 	1.80851986222363 	0.00597068460873229
6 	1.14859849100923 	2.47198095326695e-17 	1.25872827390625 	0.0751517445094255 	1.75829270786676 	0.00568220785880532
6 	1.19849727668994 	1.94072188874905e-17 	1.25765110685013 	0.0733006428990478 	1.70369097729538 	0.00537005061387157
6 	1.25022400101563 	1.85398571495021e-17 	1.25647177498741 	0.0712421019815354 	1.64533383559515 	0.00504036725069865
6 	1.30384562673186 	2.08166817117217e-17 	1.25518158000706 	0.0690027750800524 	1.58405503266989 	0.00470033008046884
6 	1.35943156962566 	2.08166817117217e-17 	1.25378342489832 	0.066623161952138 	1.52100185879949 	0.00435786677936669
6 	1.41705378838763 	2.42861286636753e-17 	1.25227703556094 	0.0641413416865707 	1.45736056840517 	0.00402029772922388
6 	1.47678687776592 	2.42861286636753e-17 	1.25066433649082 	0.0615959426646225 	1.39437670961995 	0.00369423733442966
6 	1.53870816513278 	2.08166817117217e-17 	1.24894970829342 	0.0590230193282265 	1.3332436167587 	0.00338505454602884
6 	1.60289781058851 	2.08166817117217e-17 	1.24714010326 	0.0564537899112616 	1.27508745112458 	0.00309677299437921
6 	1.66943891073267 	2.42861286636753e-17 	1.24524513509951 	0.0539133609964147 	1.22101625199148 	0.00283224619946081
6 	1.73841760623657 	3.12250225675825e-17 	1.24327707066936 	0.051418566493029 	1.17203852931872 	0.00259300333127644
6 	1.8099231933566 	2.77555756156289e-17 	1.24125228103874 	0.0489765904242661 	1.12903053255655 	0.00237930798403055
6 	1.88404823953249 	1.73472347597681e-17 	1.23918155493359 	0.0465851670960828 	1.09281494209004 	0.00219052438725329
6 	1.96088870322038 	1.38777878078145e-17 	1.23720709707671 	0.0443634120415346 	1.06541045204827 	0.0020333807716231
6 	2.02024009608346 	1.38777878078145e-17 	1.23566918545069 	0.042631240785944 	1.0488386636372 	0.00192305398804106
6 	2.06000503604194 	0 	1.23453817085952 	0.0413681752870677 	1.0401280945849 	0.00185038495677027
6 	2.09836474743796 	0 	1.23357185858358 	0.0402857844682646 	1.03526255357813 	0.00179347790634489
6 	2.13536888877257 	0 	1.23266782711581 	0.0392547276989352 	1.0330073398618 	0.001743713775512
6 	2.17106536369584 	-3.46944695195361e-18 	1.23181803377287 	0.0382695317788508 	1.03323671178365 	0.00170027830876842
6 	2.20550038302044 	0 	1.23102029786805 	0.0373254904648038 	1.03585519482885 	0.00166249257659093
6 	2.23871852454378 	6.93889390390723e-18 	1.23027234851347 	0.0364186161240594 	1.0407956798188 	0.00162979467132726
6 	2.27076279075613 	1.04083408558608e-17 	1.22957169516282 	0.0355455316559711 	1.04801696698899 	0.00160172044704189
6 	2.3016746645094 	1.04083408558608e-17 	1.22891586135167 	0.0347033757861897 	1.05750176820011 	0.00157788777145042
6 	2.33149416271872 	6.93889390390723e-18 	1.22830242622097 	0.0338897217531801 	1.06925517409051 	0.00155798376495294
6 	2.36025988816627 	6.93889390390723e-18 	1.22772903355456 	0.0331025084299344 	1.08330356769437 	0.00154175453204721
6 	2.38800907947441 	6.93889390390723e-18 	1.22719340424905 	0.032339982630963 	1.099693961453 	0.00152899696406468
6 	2.41477765931295 	6.93889390390723e-18 	1.22669334604605 	0.031600651225754 	1.11849373436311 	0.00151955226017178
6 	2.44060028090272 	3.46944695195361e-18 	1.22622675963259 	0.0308832416859812 	1.13979074936251 	0.00151330087630037
6 	2.46551037287586 	0 	1.22579164210535 	0.0301866697824652 	1.16369383722461 	0.00151015866849862
6 	2.48954018255081 	0 	1.22538608847276 	0.0295100132799886 	1.19033363689065 	0.00151007404211717
6 	2.512720817678 	0 	1.22500829158999 	0.0288524906210858 	1.21986379005195 	0.00151302596093265
6 	2.53508228671037 	-3.46944695195361e-18 	1.22465654089214 	0.0282134437206593 	1.2524624987836 	0.00151902270979373
6 	2.55665353765073 	-1.04083408558608e-17 	1.22432922025532 	0.0275923241173765 	1.28833445736405 	0.00152810132730555
6 	2.57746249552636 	-1.38777878078145e-17 	1.22402480518882 	0.0269886818396564 	1.32771317563939 	0.00154032764904947
6 	2.59753609853934 	-1.38777878078145e-17 	1.22374185953862 	0.0264021564328707 	1.37086372039897 	0.00155579692562473
6 	2.61690033293929 	-1.38777878078145e-17 	1.22347903186322 	0.0258324696648612 	1.41808590661851 	0.0015746349956632
6 	2.63558026666389 	-1.38777878078145e-17 	1.22323505159403 	0.0252794194808322 	1.46971797688914 	0.00159700000881041
6 	2.65360008179049 	-1.38777878078145e-17 	1.22300872507114 	0.0247428748162689 	1.52614081395701 	0.00162308470643305
6 	2.67098310584102 	-1.38777878078145e-17 	1.22279893151923 	0.0242227708992373 	1.5877827383286 	0.00165311927889651
6 	2.68775184198056 	-1.73472347597681e-17 	1.22260461901099 	0.0237191046828317 	1.65512495395251 	0.00168737483111384
6 	2.70392799814879 	-2.08166817117217e-17 	1.22242480047471 	0.0232319300440157 	1.72870770847858 	0.00172616749021584
6 	2.71953251516198 	-2.08166817117217e-17 	1.22225854978301 	0.0227613523770724 	1.80913723977639 	0.00176986319055475
6 	2.73458559382185 	-2.08166817117217e-17 	1.2221049979294 	0.0223075222007125 	1.897093612096 	0.00181888319508151
6 	2.74910672106653 	-2.08166817117217e-17 	1.22196332931762 	0.0218706273725637 	1.99333956833917 	0.00187371041850595
6 	2.76311469519732 	-2.08166817117217e-17 	1.22183277818977 	0.0214508834841381 	2.09873054277712 	0.00193489661004202
6 	2.776627650214 	-1.73472347597681e-17 	1.22171262520585 	0.0210485220124786 	2.21422603258032 	0.00200307047104379
6 	2.78966307929018 	-1.38777878078145e-17 	1.22160219419435 	0.0206637758211517 	2.34090260521471 	0.00207894680661033
6 	2.80223785741904 	-1.73472347597681e-17 	1.22150084908947 	0.0202968616432157 	2.47996892654329 	0.00216333683900892
6 	2.81436826325886 	-1.38777878078145e-17 	1.22140799109931 	0.0199479592595868 	2.63278334711617 	0.00225715985489808
6 	2.82607000020647 	-6.93889390390723e-18 	1.22132305613839 	0.0196171872149571 	2.80087482347639 	0.002361456447243
6 	2.83735821672613 	-6.93889390390723e-18 	1.22124551251481 	0.0193045750880374 	2.98596830497064 	0.00247740376066392
6 	2.8482475259599 	-6.93889390390723e-18 	1.221174858906 	0.0190100325517314 	3.19001618490829 	0.00260633334568383
6 	2.85875202464506 	0 	1.22111062265339 	0.0187333157175709 	3.41523808039273 	0.00274975253266781
6 	2.86888531136304 	6.93889390390723e-18 	1.2210523583709 	0.0184739915266879 	3.66417214918313 	0.00290937069911577
6 	2.87866050414343 	1.04083408558608e-17 	1.22099964685947 	0.0182314011791105 	3.9397424537058 	0.00308713245858798
6 	2.88809025744591 	1.38777878078145e-17 	1.22095209429598 	0.0180046237253493 	4.24534869037899 	0.00328526071898862
6 	2.89718677854204 	1.38777878078145e-17 	1.22090933164006 	0.0177924409027314 	4.5849871365674 	0.0035063138357786
6 	2.90596184331818 	1.38777878078145e-17 	1.22087101418234 	0.0175933039945152 	4.96341527511614 	0.00375326285503734
6 	2.91442681151997 	1.04083408558608e-17 	1.22083682113901 	0.0174053028251384 	5.38637780469787 	0.00402959730364841
6 	2.922592641458 	6.93889390390723e-18 	1.22080645518467 	0.0172261358743368 	5.86091957864774 	0.00433947145826596
6 	2.93046990419394 	6.93889390390723e-18 	1.22077964180743 	0.017053078767799 	6.39582304407393 	0.00468790803415889
6 	2.93806879722526 	6.93889390390723e-18 	1.22075612836782 	0.0168829458937867 	7.00222675486931 	0.00508108364609505
6 	2.94539915768638 	3.46944695195361e-18 	1.22073568273968 	0.0167120362732959 	7.69451239700117 	0.00552673164616616
6 	2.95247047508334 	0 	1.22071809140062 	0.0165360494379434 	8.4915993494326 	0.00603471545418666
6 	2.9592919035784 	0 	1.22070315680092 	0.0163499486795411 	9.41887462557086 	0.00661785329690557
6 	2.96587227384055 	0 	1.22069069375297 	0.0161477351011875 	10.5111439855177 	0.00729312000718501
6 	2.97222010447726 	0 	1.22068052443142 	0.0159220713069415 	11.8172812131862 	0.00808342382139655
6 	2.97834361306218 	0 	1.22067247123424 	0.0156636477005509 	13.4078120518286 	0.00902027136161762
6 	2.98425072677325 	3.46944695195361e-18 	1.22066634549861 	0.0153600943907567 	15.3877965097176 	0.0101478076481875
6 	2.98994909265477 	6.93889390390723e-18 	1.22066192735578 	0.0149940564024149 	17.9197721592761 	0.0115289318190504
6 	2.99544608751689 	6.93889390390723e-18 	1.22065893428705 	0.0145396492818324 	21.2669667470523 	0.0132542267204125
6 	3.00074882748522 	6.93889390390723e-18 	1.22065698628586 	0.013955607972915 	25.8803272889325 	0.0154531189900069
6 	3.00586417721304 	3.46944695195361e-18 	1.22065547229959 	0.0131713732973045 	32.5886719911784 	0.0182982369960712
6 	3.01079875876789 	0 	1.22065278519285 	0.0120581366719484 	43.0591431916592 	0.0219510089748818
6 	3.01555896020418 	0 	1.22064506525746 	0.0103758671337543 	61.0819564085219 	0.0262009251480909
6 	3.02015094383281 	0 	1.22062920261435 	0.00778089169004065 	97.179223171927 	0.0290674070840032
6 	3.02458065419861 	0 	1.22060990787714 	0.00443376008767618 	195.179974588477 	0.0261965122728373
6 	3.02885382577582 	0 	1.2205966234945 	0.00159365738450617 	690.515832794538 	0.0165383487620281
6 	3.03297599039165 	0 	1.22059188015511 	0.000264072973726803 	1477.7730549267 	0.00520606031789485
