7 	0.0118766634903468 	1.73472347597681e-17 	-0.0154285807658666 	-4.41141936415643e-07 	1.55744034165342e-19
7 	0.0201339998195326 	1.90819582357449e-17 	-0.012058573358387 	7.83513754527921e-05 	1.19600326724875e-20
7 	0.0286938265600376 	2.25514051876985e-17 	-0.0054378716069824 	0.000129708695897043 	-4.70250001353504e-20
7 	0.0375672248214896 	2.25514051876985e-17 	0.000597707378128067 	0.000165495744713044 	-4.50249479763029e-21
7 	0.0467656816470147 	2.25514051876985e-17 	0.00581430126429225 	0.000183142775514614 	1.48922737978077e-20
6.99999999999999 	0.0563011048837713 	2.08166817117217e-17 	0.0105396628572235 	0.000181765321977451 	-1.54255617918208e-23
7 	0.0661858385982334 	1.21430643318376e-17 	0.014990167586965 	0.000161683358497557 	-1.68108909825783e-20
7 	0.0764326790561828 	0 	0.0192923011980124 	0.000123440326670143 	-1.3864216347823e-20
7 	0.0870548912880936 	-3.46944695195361e-18 	0.0235255137673004 	6.74171082496492e-05 	4.74900628020293e-23
7 	0.0980662262613554 	3.46944695195361e-18 	0.0277441891040731 	-6.15400513390575e-06 	1.12438254943993e-20
7 	0.109480938681567 	1.04083408558608e-17 	0.0319885937299369 	-9.71196639508243e-05 	-2.41049662305367e-20
6.99999999999999 	0.121313805445942 	1.04083408558608e-17 	0.036290678648306 	-0.000205359481311245 	-1.32930355818315e-21
6.99999999999999 	0.133580144772717 	6.93889390390723e-18 	0.0406773715907333 	-0.000330754337335157 	1.33027435113668e-23
6.99999999999999 	0.146295836031327 	3.46944695195361e-18 	0.0451725682613106 	-0.00047315999463702 	8.96452632577484e-21
6.99999999999999 	0.159477340299017 	3.46944695195361e-18 	0.0497984114339093 	-0.000632382650703335 	-6.93851572248576e-22
7 	0.173141721670501 	6.93889390390723e-18 	0.0545761609426496 	-0.000808154820151116 	-3.26254885234488e-22
7 	0.187306669348262 	6.93889390390723e-18 	0.0595268178693126 	-0.00100011044573675 	-1.77982083136084e-20
7 	0.20199052054208 	6.93889390390723e-18 	0.0646715981270126 	-0.00120775822985574 	-1.75789412225026e-20
7 	0.217212284207436 	6.93889390390723e-18 	0.0700323115239911 	-0.00143045236476256 	2.83469751621738e-22
7 	0.232991665653523 	1.04083408558608e-17 	0.0756316808142541 	-0.00166736002093423 	2.31150883757581e-22
7 	0.249349092052728 	1.04083408558608e-17 	0.0814936225325412 	-0.00191742501528258 	1.70022418823908e-20
7 	0.266305738884589 	0 	0.0876435035413039 	-0.00217932713104551 	1.71828001902853e-20
7 	0.283883557348484 	-6.28837260041593e-18 	0.0941083250169464 	-0.00245093817994783 	1.72481984183691e-20
7 	0.302105302780516 	-1.01915004213637e-17 	0.100918041790525 	-0.00272845763771653 	4.82200690956291e-22
7 	0.320994564111403 	-1.43114686768087e-17 	0.108104857910713 	-0.0030110392490764 	2.11139023639779e-22
7 	0.340575794403482 	-1.56125112837913e-17 	0.115702455788419 	-0.00329579414393842 	-2.81428821190834e-21
7 	0.360874342506392 	-1.47451495458029e-17 	0.123747115090933 	-0.0035792781628642 	-4.09556853328212e-21
7 	0.38191648587238 	-1.64798730217797e-17 	0.132277899321237 	-0.00385741535190464 	-2.70677985066133e-20
7 	0.403729464573739 	-2.08166817117217e-17 	0.141336818451269 	-0.00412541611671502 	9.97523265928194e-22
7 	0.426341516566396 	-2.60208521396521e-17 	0.150968956309856 	-0.00437769092405743 	4.88514287237261e-21
7 	0.44978191424532 	-2.94902990916057e-17 	0.161222547737668 	-0.00460776024177666 	2.59277295108828e-20
7 	0.474081002339049 	-2.42861286636753e-17 	0.172148986548201 	-0.00480816146760285 	-3.29627932665834e-21
7 	0.499270237192413 	-2.42861286636753e-17 	0.183802739720994 	-0.00497036593052311 	-1.80457153614193e-21
7 	0.525382227488298 	-2.77555756156289e-17 	0.196241132611197 	-0.00508473877762091 	2.53918507921183e-20
7 	0.552450776461161 	-2.42861286636753e-17 	0.209523980408374 	-0.00514038097993621 	-9.97603895776001e-22
7 	0.580510925656956 	-1.73472347597681e-17 	0.223713189755249 	-0.00512401904161219 	7.70632038624955e-21
7 	0.609599000296117 	-1.04083408558608e-17 	0.238876738388518 	-0.00502230846674292 	1.72006909940912e-20
7 	0.639752656298308 	-6.93889390390723e-18 	0.255150631817092 	-0.00483209868046907 	-2.3856656284686e-20
7 	0.671010929029843 	-3.46944695195361e-18 	0.272913969782369 	-0.00455699373890561 	2.11521080170475e-20
7 	0.703414283836854 	-1.04083408558608e-17 	0.292621791229532 	-0.00419671670608427 	2.06576552404357e-16
7 	0.737004668429647 	-1.38777878078145e-17 	0.3144999292437 	-0.00373871856208843 	2.7946550890728e-16
7 	0.761419519668443 	-6.93889390390723e-18 	0.331174325761462 	-0.00334876634255466 	-1.2904099463227e-16
7 	0.779162313841552 	-4.55364912443912e-18 	0.343704156974719 	-0.00302687342155832 	-3.75185899762096e-16
6.99999999999999 	0.807992742715646 	4.55364912443912e-18 	0.364539896047668 	-0.00244313389543183 	-2.29302094619271e-16
6.99999999999999 	0.845475280399477 	9.10729824887824e-18 	0.392389985162859 	-0.00157567707900784 	2.47389742502747e-20
6.99999999999999 	0.884326557652535 	8.67361737988404e-18 	0.421896120392125 	-0.00055586189596658 	1.7473890032775e-20
6.99999999999999 	0.924596372923087 	3.46944695195361e-18 	0.452887592526358 	0.000611221148909293 	3.70671162122129e-20
6.99999999999999 	0.966336321272196 	-3.46944695195361e-18 	0.485202230039038 	0.00191645725528598 	-7.41263625683425e-20
6.99999999999999 	1.00959985787075 	-5.20417042793042e-18 	0.518655847323265 	0.00334625915378893 	4.19989401444984e-20
6.99999999999999 	1.05444236361788 	-6.93889390390723e-18 	0.5530113572382 	0.00488009228629064 	4.87664874538164e-21
6.99999999999999 	1.10092121293912 	-3.46944695195361e-18 	0.587962181040321 	0.00648778797696569 	1.25660306537579e-19
6.99999999999999 	1.14909584382294 	0 	0.623137248840787 	0.00812849940788014 	-1.17670251496338e-20
7 	1.19902783015393 	-3.46944695195361e-18 	0.658126262462318 	0.00975211941661738 	7.86780818644057e-20
7 	1.25078095640108 	-8.45677694538693e-18 	0.692517843814284 	0.0113054824770113 	-8.98802454289232e-20
7 	1.30442129471847 	-1.01915004213637e-17 	0.725896063275228 	0.0127361633318213 	-1.51768793436284e-19
7 	1.36001728451516 	-1.04083408558608e-17 	0.757896850488485 	0.013980011698157 	-1.57473747230098e-20
7 	1.41763981454947 	-1.38777878078145e-17 	0.788309903562692 	0.0150020791301397 	-2.96561885513871e-20
7 	1.47736230760124 	-1.56125112837913e-17 	0.817050874866439 	0.0157845442471089 	-4.97437722846677e-16
7 	1.53926080777324 	-1.04083408558608e-17 	0.844126240206544 	0.0163247213455615 	-3.40514731988908e-15
7 	1.60341407047001 	-1.38777878078145e-17 	0.869592767579059 	0.0166292425432656 	2.81609038531004e-15
7 	1.66893489902569 	-1.04083408558608e-17 	0.893180304494292 	0.0167106499388309 	1.05065728562879e-15
7 	1.7027752979414 	-2.54787510534094e-18 	0.904763864028837 	0.0166939055998709 	2.90019977248944e-17
7 	1.73884798288128 	2.65629532258949e-18 	0.915980757316504 	0.0165868818382274 	-1.24958315123808e-19
7 	1.81031024575141 	1.04083408558608e-17 	0.936987559356709 	0.0162704117605808 	-1.95122969048363e-19
7 	1.88432958821743 	1.04083408558608e-17 	0.956423624665954 	0.0157623852057317 	3.45917653378672e-20
7 	1.9609947218388 	1.90819582357449e-17 	0.973839712241025 	0.01506094989424 	7.73983310528065e-21
7 	2.02024009608346 	2.77555756156289e-17 	0.986091073358893 	0.0144583500005546 	5.57813242516721e-22
7 	2.06000503604194 	3.46944695195361e-18 	0.993991642742301 	0.014048532624501 	0
7 	2.09836474743796 	3.46944695195361e-18 	1.0010067405899 	0.0136544894457368 	0
7 	2.13536888877258 	3.46944695195361e-18 	1.00745571249949 	0.0132770112199774 	0
7 	2.17106536369585 	3.46944695195361e-18 	1.01336753119867 	0.0129130114993545 	0
7 	2.20550038302044 	3.46944695195361e-18 	1.0187720087879 	0.0125601089687943 	0
7 	2.23871852454378 	3.46944695195361e-18 	1.02369862588475 	0.012217236928603 	0
7 	2.27076279075613 	0 	1.02817555477081 	0.0118836953107374 	0
7 	2.30167466450941 	-3.46944695195361e-18 	1.03222903743057 	0.0115590111607763 	0
7 	2.33149416271872 	-6.93889390390723e-18 	1.03588302881955 	0.0112428745829725 	0
7 	2.36025988816627 	-1.38777878078145e-17 	1.0391590119342 	0.0109350709774341 	0
7 	2.38800907947441 	-2.08166817117217e-17 	1.04207592111144 	0.0106354337686784 	0
7 	2.41477765931295 	-2.08166817117217e-17 	1.0446501299893 	0.010343815034309 	0
7 	2.44060028090272 	-1.73472347597681e-17 	1.04689547448046 	0.0100600678525348 	0
7 	2.46551037287586 	-1.90819582357449e-17 	1.04882329108735 	0.00978403648682346 	0
7 	2.48954018255081 	-2.08166817117217e-17 	1.05044245780943 	0.00951555176997501 	0
7 	2.512720817678 	-1.73472347597681e-17 	1.05175942966665 	0.0092544298107128 	0
7 	2.53508228671037 	-1.38777878078145e-17 	1.05277826424128 	0.00900047272923327 	0
7 	2.55665353765073 	-1.38777878078145e-17 	1.05350063516824 	0.00875347055104981 	0
7 	2.57746249552636 	-1.38777878078145e-17 	1.05392583357033 	0.00851320367982459 	0
7 	2.59753609853934 	-1.38777878078145e-17 	1.05405075931528 	0.0082794455654222 	0
7 	2.61690033293929 	-1.73472347597681e-17 	1.05386990586157 	0.00805196531019501 	0
7 	2.63558026666389 	-2.08166817117217e-17 	1.05337534448243 	0.00783053003390374 	0
7 	2.65360008179049 	-2.08166817117217e-17 	1.05255671585915 	0.0076149068598701 	0
7 	2.67098310584102 	-2.42861286636753e-17 	1.05140123936906 	0.00740486440277456 	0
7 	2.68775184198056 	-2.77555756156289e-17 	1.04989375268802 	0.00720017364087277 	0
7 	2.70392799814879 	-2.77555756156289e-17 	1.04801679625665 	0.00700060805066542 	0
7 	2.71953251516198 	-2.77555756156289e-17 	1.04575075822222 	0.00680594287894403 	0
7 	2.73458559382185 	-2.42861286636753e-17 	1.04307409500518 	0.00661595343522315 	0
7 	2.74910672106653 	-2.08166817117217e-17 	1.03996363991069 	0.00643041231694614 	0
7 	2.76311469519732 	-2.08166817117217e-17 	1.0363950065507 	0.00624908553976686 	0
7 	2.776627650214 	-2.42861286636753e-17 	1.0323430849289 	0.00607172764143714 	0
7 	2.78966307929018 	-3.12250225675825e-17 	1.02778261613854 	0.00589807595923055 	0
7 	2.80223785741904 	-3.46944695195361e-17 	1.02268881782465 	0.00572784443635632 	0
7 	2.81436826325886 	-3.81639164714898e-17 	1.01703801878887 	0.00556071747059713 	0
7 	2.82607000020647 	-3.81639164714898e-17 	1.01080824981263 	0.00539634444682046 	0
7 	2.83735821672613 	-3.12250225675825e-17 	1.00397973129315 	0.00523433564998453 	0
7 	2.8482475259599 	-2.77555756156289e-17 	0.996535198107836 	0.00507426021381284 	0
7 	2.85875202464506 	-2.77555756156289e-17 	0.988460008238697 	0.00491564682113304 	0
7 	2.86888531136304 	-2.77555756156289e-17 	0.979741992410028 	0.00475798812096422 	0
7 	2.87866050414343 	-2.77555756156289e-17 	0.970371014297045 	0.00460074647846319 	0
7 	2.88809025744591 	-3.29597460435593e-17 	0.960338221095782 	0.00444334811707742 	0
7 	2.89718677854204 	-3.81639164714898e-17 	0.94963496879203 	0.00428520484930859 	0
7 	2.90596184331818 	-4.16333634234434e-17 	0.938247644406727 	0.00412601597840368 	0
7 	2.91442681151997 	-4.5102810375397e-17 	0.926121216159627 	0.00396459109617305 	0
7 	2.922592641458 	-4.5102810375397e-17 	0.913162290258914 	0.00379931733137416 	0
7 	2.93046990419394 	-4.5102810375397e-17 	0.899327169278799 	0.00362843948271025 	0
7 	2.93806879722526 	-4.16333634234434e-17 	0.884649540400944 	0.00345095876875814 	0
7 	2.94539915768638 	-3.46944695195361e-17 	0.869189667967677 	0.00326585114695241 	0
7 	2.95247047508334 	-3.12250225675825e-17 	0.852990201501251 	0.00307207597361615 	0
7 	2.9592919035784 	-3.12250225675825e-17 	0.836033442866496 	0.00286928829834828 	0
7 	2.96587227384055 	-3.12250225675825e-17 	0.818188387491502 	0.00265883987430206 	0
7 	2.97222010447726 	-3.46944695195361e-17 	0.799230499968174 	0.00244193643999982 	0
7 	2.97834361306218 	-3.46944695195361e-17 	0.778893312453388 	0.00222058048360359 	0
7 	2.98425072677325 	-3.12250225675825e-17 	0.756831346169152 	0.00199519830215879 	0
7 	2.98994909265477 	-3.12250225675825e-17 	0.732552085387925 	0.00176642461026231 	0
7 	2.99544608751689 	-3.12250225675825e-17 	0.705332753587972 	0.00153525294137135 	0
7 	3.00074882748522 	-2.94902990916057e-17 	0.674079504874292 	0.00130303821571119 	0
7 	3.00586417721304 	-3.12250225675825e-17 	0.637052877389716 	0.0010716851481215 	0
7 	3.01079875876789 	-3.46944695195361e-17 	0.591344024553867 	0.000843864824718032 	0
7 	3.01555896020418 	-3.46944695195361e-17 	0.532209295070242 	0.00062434796391166 	0
7 	3.02015094383281 	-3.46944695195361e-17 	0.452252851867211 	0.000418317187212603 	0
7 	3.02458065419861 	-3.46944695195361e-17 	0.343709808307315 	0.00023289550801689 	0
7 	3.02885382577582 	-3.12250225675825e-17 	0.211150610093323 	9.00283003163698e-05 	0
7 	3.03297599039165 	-3.46944695195361e-17 	0.0709425214979316 	1.1685788148671e-05 	0
