8 	0.451351328258348 	2.42861286636753e-17 	0.0271007125418236 	0.0203021192309836 	-4.01997041409e-17
8 	0.457856884620643 	2.08166817117217e-17 	0.0748487423467477 	0.0569513717370736 	4.58976719935648e-17
8 	0.464597494115106 	2.42861286636753e-17 	0.110036635226065 	0.0823802179246794 	4.66749516940294e-18
8 	0.471581531993148 	2.42861286636753e-17 	0.129788106804672 	0.0953280053083541 	2.93422657127769e-20
8 	0.478817663648092 	2.08166817117217e-17 	0.141143467817894 	0.101668752962045 	1.3877308481125e-21
8 	0.486314854098318 	2.25514051876985e-17 	0.149157036784466 	0.105276003123515 	-3.52868486664984e-19
8 	0.49408237774287 	1.56125112837913e-17 	0.155774669608011 	0.107652401611579 	-4.71066267776568e-18
8 	0.502129828395036 	1.04083408558608e-17 	0.161726877494478 	0.109378966128604 	3.75601139029263e-18
8 	0.510467129599323 	2.08166817117217e-17 	0.16733895028494 	0.110712467292834 	4.60303359544039e-19
8 	0.519104545237329 	2.08166817117217e-17 	0.172780132588505 	0.111781882501021 	3.34700267003547e-21
8 	0.528052690427915 	1.73472347597681e-17 	0.178149187134639 	0.112659094722479 	2.14359889981556e-18
8 	0.537322542727032 	2.08166817117217e-17 	0.183509229907421 	0.113387165601476 	-2.22581732557571e-18
8 	0.546925453632554 	1.90819582357449e-17 	0.188903787312152 	0.113993068566609 	-2.01137787985369e-18
8 	0.556873160399407 	1.47451495458029e-17 	0.194364894400942 	0.114494078425912 	4.46168848090529e-17
8 	0.567177798170198 	1.82145964977565e-17 	0.199917503333841 	0.11490124237818 	5.05460999066297e-16
8 	0.577851912426569 	2.25514051876985e-17 	0.205582012864132 	0.115221443673644 	-4.56519646690297e-16
8 	0.58890847176635 	2.51534904016637e-17 	0.211375787593521 	0.115458756954881 	4.34171052719473e-16
8 	0.600360881011604 	2.94902990916057e-17 	0.217314598115118 	0.115614584668612 	-4.6034180973104e-16
8 	0.612222994652597 	3.12250225675825e-17 	0.223414615046552 	0.115685635137318 	-1.68306766637868e-17
8 	0.624509130632625 	2.86229373536173e-17 	0.229688536426835 	0.115672990428046 	-1.39667249959938e-18
8 	0.637234084478675 	2.73218947466347e-17 	0.236165803885298 	0.115601833190542 	1.39057128317355e-18
8 	0.65041314378278 	2.77555756156289e-17 	0.242977739470115 	0.115505290291662 	-3.10230415040387e-18
8 	0.664062103038993 	2.86229373536173e-17 	0.250253811831117 	0.115413131559244 	2.89650555221486e-18
8 	0.678197278840822 	2.57226965422186e-17 	0.258029222232268 	0.115351255587731 	5.11612005535866e-16
8 	0.692835525444093 	2.52890156732244e-17 	0.266357783746849 	0.115319881853518 	-5.12378020594112e-16
8 	0.707994250700163 	2.77555756156289e-17 	0.275290923687749 	0.115316081459756 	-5.46057420917093e-18
8 	0.723691432364531 	2.42861286636753e-17 	0.284839889227269 	0.115321850630628 	-1.65549187568586e-20
8 	0.739945634786034 	2.08166817117217e-17 	0.295039768951782 	0.115330603136351 	2.52541598532936e-20
8 	0.756776025981913 	2.08166817117217e-17 	0.305925384069775 	0.115334626520607 	1.7268249304065e-18
8 	0.77420239510431 	2.08166817117217e-17 	0.317530473195812 	0.115325595617756 	-1.59604438139017e-18
8 	0.792245170304006 	2.42861286636753e-17 	0.329886911935272 	0.115294603249782 	-3.82983499301565e-20
8 	0.810925436997537 	2.42861286636753e-17 	0.343023900323899 	0.115232176621348 	-1.2590116412616e-19
8 	0.830264956544259 	2.42861286636753e-17 	0.356967064075666 	0.115128344073684 	-7.33646622858567e-20
8 	0.850286185340416 	2.08166817117217e-17 	0.371737550323556 	0.114972708000543 	-6.09952205999438e-20
8 	0.871012294337907 	1.04083408558608e-17 	0.387351203371905 	0.114754531291412 	-2.11074537214568e-20
8 	0.892467188996067 	3.46944695195361e-18 	0.40381788853486 	0.114462857830871 	1.39749067494125e-19
8 	0.914675529675727 	-3.46944695195361e-18 	0.42114100810259 	0.114086681661137 	-1.40341475636056e-18
8 	0.93766275248567 	-3.46944695195361e-18 	0.439317210576659 	0.113615172845482 	1.08028551667286e-18
8.00000000000001 	0.961455090592773 	0 	0.458336238626134 	0.113037958056329 	-1.45535182951178e-18
8.00000000000001 	0.986079596008391 	3.46944695195361e-18 	0.478180807970692 	0.112345440158422 	-3.02900999285511e-19
8.00000000000001 	1.01156416186494 	0 	0.498826375025956 	0.111529126840512 	1.29329795046107e-18
8.00000000000001 	1.03793754519838 	-6.93889390390723e-18 	0.520240648800607 	0.110581927254734 	6.32435376556148e-16
8.00000000000001 	1.06522939025402 	-6.93889390390723e-18 	0.542382737668192 	0.109498370680668 	7.24834674319766e-16
8.00000000000001 	1.09347025233532 	-1.73472347597681e-17 	0.565201890512587 	0.108274704520688 	8.24347570354077e-16
8.00000000000001 	1.12269162221744 	-2.42861286636753e-17 	0.588635883652714 	0.106908841221058 	3.03985821480546e-15
8 	1.15292595115017 	-1.38777878078145e-17 	0.612609205811767 	0.105400144200168 	-1.74381269774013e-15
8 	1.18420667647759 	-3.46944695195361e-18 	0.637031289045811 	0.103749069154162 	-2.68542529607779e-15
8.00000000000001 	1.20932909530118 	-6.07153216591882e-18 	0.656317081951993 	0.10236672864943 	-1.37750816200929e-15
8.00000000000001 	1.2257861591868 	-1.64798730217797e-17 	0.668769128427524 	0.101436025136156 	-4.13028856621284e-16
8 	1.25005321751835 	-1.38777878078145e-17 	0.686779381235275 	0.100029749096664 	4.65994873212069e-19
8 	1.28469102414858 	-1.04083408558608e-17 	0.711848658059487 	0.0979637330401799 	1.42019273541525e-19
8 	1.32051868198682 	-1.38777878078145e-17 	0.736849563312491 	0.0957588889394909 	-8.95622848801585e-19
8.00000000000001 	1.3575749113027 	-1.73472347597681e-17 	0.761618249074626 	0.0934152457492539 	7.62185007590634e-16
8.00000000000001 	1.39589958614844 	-1.73472347597681e-17 	0.785986616164707 	0.0909325287470927 	3.39964861787857e-15
8.00000000000001 	1.43553376564931 	-1.21430643318376e-17 	0.809790844544044 	0.0883107493946532 	-3.54971765514194e-15
8.00000000000001 	1.4765197263157 	-1.38777878078145e-17 	0.832881410468538 	0.0855510807989543 	-5.27905485758196e-16
8.00000000000001 	1.51890099544909 	-1.38777878078145e-17 	0.855132905759828 	0.082656863741242 	6.07448583002628e-19
8.00000000000001 	1.56272238572048 	-8.67361737988404e-18 	0.876451279208076 	0.0796344957181883 	-5.50693469832985e-20
8.00000000000001 	1.60803003100718 	-1.38777878078145e-17 	0.896776297078857 	0.0764939365353366 	-2.81982805706136e-19
8.00000000000001 	1.65487142358089 	-1.38777878078145e-17 	0.916078491415896 	0.0732486457240152 	4.93338623924025e-19
8.00000000000001 	1.70329545274807 	-6.93889390390723e-18 	0.934352251337856 	0.0699148735028333 	2.45002814169606e-20
8 	1.75335244505158 	-8.45677694538693e-18 	0.951608347392154 	0.0665102594994134 	-3.88615182362371e-19
8 	1.80509420615116 	-4.98732999343332e-18 	0.967860318549682 	0.0630461869064231 	6.69097588649168e-19
8.00000000000001 	1.85857406450892 	-3.46944695195361e-18 	0.983102015507318 	0.059525356783422 	-3.31975624242998e-19
8.00000000000001 	1.91384691701537 	-6.93889390390723e-18 	0.997290511316845 	0.0559887087093876 	3.19403476251808e-19
8.00000000000001 	1.97096927670054 	-1.21430643318376e-17 	1.0101295617715 	0.0525206119635687 	1.08406911287609e-21
8 	2.02024009608346 	1.38777878078145e-17 	1.01981207349991 	0.0496098302314422 	-4.7367783078801e-21
8 	2.06000503604194 	2.08166817117217e-17 	1.02705020678227 	0.0473210298096536 	0
8 	2.09836474743796 	2.08166817117217e-17 	1.03350197336081 	0.0451638310312924 	0
8 	2.13536888877258 	1.38777878078145e-17 	1.03937980362783 	0.0431277933155865 	0
8 	2.17106536369585 	2.08166817117217e-17 	1.04474351028894 	0.0412099189624171 	0
8 	2.20550038302044 	2.77555756156289e-17 	1.04963837158785 	0.0394027442241461 	0
8 	2.23871852454378 	2.77555756156289e-17 	1.05410007543169 	0.0376994881594671 	0
8 	2.27076279075613 	2.77555756156289e-17 	1.05815777871524 	0.0360929870286386 	0
8 	2.30167466450941 	2.77555756156289e-17 	1.06183603363578 	0.0345760421267581 	0
8 	2.33149416271872 	2.77555756156289e-17 	1.06515592381847 	0.0331417654935682 	0
8 	2.36025988816626 	2.08166817117217e-17 	1.06813571958047 	0.0317837215766864 	0
8 	2.38800907947441 	1.38777878078145e-17 	1.07079125001959 	0.0304959811966513 	0
8 	2.41477765931295 	1.38777878078145e-17 	1.07313610928235 	0.0292731292617999 	0
8 	2.44060028090272 	1.38777878078145e-17 	1.07518176657285 	0.0281102440077934 	0
8 	2.46551037287586 	1.73472347597681e-17 	1.0769376201991 	0.0270028611794098 	0
8 	2.48954018255081 	2.08166817117217e-17 	1.07841101826823 	0.0259469319179595 	6.81366665628211e-16
8 	2.512720817678 	1.73472347597681e-17 	1.07960725836286 	0.0249387794802025 	6.13381499643886e-15
8 	2.53508228671037 	1.38777878078145e-17 	1.08052957286875 	0.0239750576464374 	-6.33938718078378e-15
8 	2.55665353765073 	1.38777878078145e-17 	1.08117910383407 	0.0230527122789685 	-6.9967422721038e-16
8 	2.57746249552636 	1.38777878078145e-17 	1.08155487027563 	0.0221689466407812 	0
8 	2.59753609853934 	1.38777878078145e-17 	1.08165373109488 	0.0213211905870278 	0
8 	2.61690033293929 	1.38777878078145e-17 	1.08147034787358 	0.0205070734696478 	0
8 	2.63558026666389 	1.73472347597681e-17 	1.08099715357308 	0.0197244004615917 	0
8 	2.65360008179049 	2.42861286636753e-17 	1.08022433539968 	0.0189711319556883 	0
8 	2.67098310584102 	2.77555756156289e-17 	1.07913984263312 	0.0182453656885076 	0
8 	2.68775184198056 	2.42861286636753e-17 	1.07772943275912 	0.0175453212590106 	0
8 	2.70392799814879 	2.08166817117217e-17 	1.07597677136047 	0.0168693267411377 	0
8 	2.71953251516198 	2.42861286636753e-17 	1.0738636022721 	0.016215807119931 	0
8 	2.73458559382185 	2.08166817117217e-17 	1.07137000368752 	0.0155832743069853 	0
8 	2.74910672106653 	2.08166817117217e-17 	1.06847474233775 	0.0149703185101902 	0
7.99999999999999 	2.76311469519732 	2.77555756156289e-17 	1.06515573080793 	0.0143756007443381 	0
8 	2.776627650214 	2.77555756156289e-17 	1.06139058223662 	0.0137978462747502 	0
8 	2.78966307929018 	3.12250225675825e-17 	1.05715724260161 	0.0132358387895674 	0
8 	2.80223785741904 	3.81639164714898e-17 	1.05243466515939 	0.0126884151039172 	0
8 	2.81436826325886 	4.16333634234434e-17 	1.04720347702432 	0.0121544602195853 	0
8 	2.82607000020647 	3.46944695195361e-17 	1.04144657754125 	0.0116329026084525 	0
8 	2.83735821672613 	2.77555756156289e-17 	1.03514960483425 	0.0111227096711862 	-7.27727637627426e-16
8 	2.8482475259599 	2.77555756156289e-17 	1.02830121206395 	0.0106228834617442 	-1.23426962548651e-14
8 	2.85875202464506 	2.77555756156289e-17 	1.02089310759774 	0.0101324569814417 	1.28760209277783e-14
8 	2.86888531136304 	2.77555756156289e-17 	1.01291983016515 	0.00965049164930836 	7.55729517995801e-16
8 	2.87866050414343 	2.77555756156289e-17 	1.00437824595932 	0.00917607694851059 	0
8 	2.88809025744591 	3.46944695195361e-17 	0.995266763615052 	0.00870833368999652 	0
8 	2.89718677854204 	4.16333634234434e-17 	0.985584259723524 	0.0082464226926157 	0
8 	2.90596184331818 	4.5102810375397e-17 	0.975328689059582 	0.00778956066410066 	0
8 	2.91442681151997 	4.5102810375397e-17 	0.964495321538631 	0.00733704413530511 	0
8 	2.922592641458 	4.5102810375397e-17 	0.953074509336061 	0.00688827972491733 	0
8 	2.93046990419394 	5.20417042793042e-17 	0.941048851006136 	0.00644281697453842 	0
8 	2.93806879722526 	5.20417042793042e-17 	0.928389581057644 	0.00600037598267288 	0
8 	2.94539915768638 	4.5102810375397e-17 	0.91505194664383 	0.00556086750037383 	0
8 	2.95247047508334 	3.81639164714898e-17 	0.900969215511013 	0.00512440608705161 	0
8 	2.9592919035784 	3.46944695195361e-17 	0.886044740846988 	0.00469131544345991 	0
8 	2.96587227384055 	3.46944695195361e-17 	0.870141125861111 	0.00426212461162352 	0
8 	2.97222010447726 	3.46944695195361e-17 	0.853064900823192 	0.00383756276755564 	0
8 	2.97834361306218 	3.46944695195361e-17 	0.834544022947801 	0.00341856420239015 	0
8 	2.98425072677325 	3.12250225675825e-17 	0.814193544366792 	0.00300629432438821 	0
8 	2.98994909265477 	2.42861286636753e-17 	0.791461220600054 	0.00260217855908212 	0
8 	2.99544608751689 	2.42861286636753e-17 	0.765538090092849 	0.00220791210089762 	0
8 	3.00074882748522 	2.77555756156289e-17 	0.735196080458105 	0.00182596553806397 	0
8 	3.00586417721304 	2.77555756156289e-17 	0.698417566061819 	0.00146012771167967 	0
8 	3.01079875876789 	2.77555756156289e-17 	0.6518479659185 	0.00111485816536653 	-1.38867425184652e-14
8 	3.01555896020418 	2.42861286636753e-17 	0.590240667787382 	0.000798016893717034 	-8.40526108285212e-14
8 	3.02015094383281 	2.42861286636753e-17 	0.505693810800883 	0.000516240853545261 	1.18238013357221e-13
8 	3.02458065419861 	2.77555756156289e-17 	0.389092257031532 	0.000276676906237226 	1.79722769964396e-14
8 	3.02885382577582 	2.08166817117217e-17 	0.242580012434884 	0.000101375458383656 	0
8 	3.03297599039165 	1.21430643318376e-17 	0.0827242461699675 	1.18745023402441e-05 	0
