/*--------------------------------*- C++ -*----------------------------------*\
  =========                 |
  \\      /  F ield         | OpenFOAM: The Open Source CFD Toolbox
   \\    /   O peration     | Website:  https://openfoam.org
    \\  /    A nd           | Version:  7
     \\/     M anipulation  |
\*---------------------------------------------------------------------------*/
FoamFile
{
    version     2.0;
    format      ascii;
    class       volScalarField;
    location    "10000";
    object      k;
}
// * * * * * * * * * * * * * * * * * * * * * * * * * * * * * * * * * * * * * //

dimensions      [0 2 -2 0 0 0 0];

internalField   nonuniform List<scalar> 
15600
(
2.55170611777903e-05
2.17170363359421e-05
1.11818570853337e-05
3.50540854335268e-06
4.23052180990225e-07
6.59618252421294e-08
4.73190169677082e-08
3.02302619498867e-08
2.74403895350586e-08
2.43037444126029e-08
2.38450038890328e-08
2.62812842344347e-08
3.19974617129442e-08
4.18376970554539e-08
5.87802685436751e-08
8.63813951148537e-08
1.28833849458453e-07
1.89718765825101e-07
2.7369202578625e-07
3.84261927314744e-07
5.21771139935007e-07
6.83307885609484e-07
8.6932294604552e-07
1.07127148292108e-06
1.264991961119e-06
1.42805393355901e-06
1.56472999361184e-06
1.72173239077133e-06
2.28831018979974e-06
3.22335729655305e-06
4.17635138978238e-06
5.13464718534569e-06
6.09779404877742e-06
7.06060188577263e-06
8.02165679718432e-06
8.98028441738199e-06
9.93496105693241e-06
1.08842245207925e-05
1.18259274501715e-05
1.27577613136783e-05
1.36771874630804e-05
1.45817028242568e-05
1.54691290951592e-05
1.63382971690007e-05
1.71899452794813e-05
1.80258379631444e-05
1.88433307079043e-05
1.96151382762133e-05
2.03334427749203e-05
2.1006696529396e-05
2.16323099312176e-05
2.2208511523982e-05
2.27339119216996e-05
2.32075435035045e-05
2.36288706407053e-05
2.39977769545098e-05
2.43145475949469e-05
2.45798364299256e-05
2.47946307105268e-05
2.49602110584199e-05
2.50781114033643e-05
2.51500799949922e-05
2.51780328301222e-05
2.51640046251823e-05
2.51100661286042e-05
2.50182423699599e-05
2.48903905423155e-05
2.47281778668975e-05
2.45331224902786e-05
2.43068240476049e-05
2.40511842586285e-05
2.37683272805951e-05
2.3460381354941e-05
2.31293032777518e-05
2.27765437071799e-05
2.2403034233453e-05
2.20090541695421e-05
2.15946215390158e-05
2.11598134093587e-05
2.07044164060878e-05
2.02280560312825e-05
1.97292204885915e-05
1.92056663619593e-05
1.86527769423655e-05
1.806522047077e-05
1.74336717723199e-05
1.67486801883647e-05
1.5993030497583e-05
1.51522836250169e-05
1.41983962074847e-05
1.30877138975216e-05
1.17702967527344e-05
1.08647616119836e-05
1.12564672456297e-05
1.19498143615189e-05
1.29346976616202e-05
1.38981769647036e-05
1.49188168903757e-05
1.59934594681769e-05
1.72626930578015e-05
1.8537890525915e-05
1.97577182609239e-05
2.07718698596796e-05
2.14961925205247e-05
2.15987803987167e-05
2.12720067207304e-05
2.07840569214704e-05
2.03020699183871e-05
1.99887069990367e-05
2.00949368511009e-05
2.11835308403167e-05
2.31757644652253e-05
2.64567095157441e-05
3.21010693566013e-05
4.06615426528913e-05
4.91796047818886e-05
4.25302202163994e-05
3.22730211222609e-05
2.50943398414598e-05
2.56672977303211e-05
0.000822252374576083
0.000695236188851506
0.000369045061100579
0.000117305528743656
1.49341405264311e-05
2.36137805306728e-06
1.57254144660545e-06
9.99966518928168e-07
8.9974729101885e-07
7.95893860950217e-07
7.76585540489919e-07
8.50793353182384e-07
1.03114675666343e-06
1.34362622498933e-06
1.88262604755281e-06
2.76296690618969e-06
4.1212768709157e-06
6.07475381585367e-06
8.77501661728553e-06
1.23386231863919e-05
1.67801121812599e-05
2.2006925914077e-05
2.80287339801063e-05
3.4632795206531e-05
4.10727766147133e-05
4.65369858876976e-05
5.10008768354325e-05
5.62382342858297e-05
7.49898044925613e-05
0.000105028333222418
0.000135440193745227
0.000165829309054244
0.000196221846702793
0.00022646241495339
0.000256526917389089
0.000286397982807214
0.000316036277744089
0.000345400075866631
0.000374428513606729
0.000403055452321592
0.000431208927715984
0.000458818772180286
0.00048582567055409
0.000512201615517706
0.000537976384354531
0.000563209072924532
0.000587842166623001
0.000611162712253216
0.000633078024735995
0.000653601405294754
0.000672663298199851
0.000690217680321024
0.000706229418649402
0.000720675215709883
0.00073354387087893
0.000744835832170742
0.000754562666346648
0.000762746085129361
0.000769416934827248
0.000774614064730134
0.000778383207381414
0.000780775923744534
0.000781848300044812
0.000781659639087707
0.000780270048621232
0.000777738177617278
0.000774117491057555
0.000769455669241786
0.000763795649219009
0.000757182485031731
0.00074967038620919
0.000741320633485116
0.000732194927789215
0.000722350418106905
0.000711829055871438
0.000700657435074019
0.000688842096055083
0.000676381154659042
0.000663274907832337
0.00064951420203251
0.00063508597276063
0.000619940857402778
0.00060400866722939
0.000587142226677554
0.000569175284196406
0.0005498096146538
0.000528749026139521
0.000505439850696545
0.000479421270233099
0.00044979838307001
0.0004152104948669
0.000374418132656036
0.000346829899412969
0.000359612387722684
0.000382025523096867
0.000414326606037493
0.000445872125457647
0.000479611967824494
0.000515264500141191
0.000557279844472011
0.000599068108464504
0.000638791083800831
0.000671418749796735
0.000694131902129822
0.000696195267499918
0.000685377219727825
0.000670157850789447
0.000655574921750661
0.000647182401849017
0.000653674318290469
0.000693080135226804
0.000760149387111051
0.000869208633749877
0.0010536738185077
0.0013178981701159
0.00154685270843511
0.0013430902052851
0.00104392977448902
0.000819614375581748
0.000821463132024826
0.00485789000098416
0.00424997846991951
0.0026750358628671
0.000938498861414153
0.000123798616169165
1.91593417470263e-05
1.17368396994784e-05
7.43881529517018e-06
6.65354153732319e-06
5.88466781955119e-06
5.71782961736192e-06
6.2305384115017e-06
7.5236086585493e-06
9.78097175275583e-06
1.36821526881731e-05
2.00656368316085e-05
2.99154517881572e-05
4.40665862299158e-05
6.35398559457217e-05
8.90263838958869e-05
0.000120422353452579
0.000156949264841141
0.000198311289128268
0.000242653981303362
0.000285546617953589
0.000321852302790997
0.000354433743795317
0.0004061898453153
0.000537026587395751
0.000717260792474222
0.000888408416078248
0.00105096684659557
0.00120702018925719
0.00135684189760546
0.00150128251134252
0.00164084172385018
0.00177588095337421
0.00190662971077325
0.00203321082868198
0.00215568266918669
0.00227406149602199
0.00238835001123013
0.00249857575904237
0.0026048653768521
0.00270755324276089
0.00280688395244116
0.00290238494439324
0.00299219363943655
0.00307626143242834
0.00315464535562758
0.00322727068617889
0.0032941092726419
0.00335515277649646
0.0034104162801103
0.00345993953258855
0.0035037863825774
0.0035420438539852
0.0035748200995654
0.00360224224235792
0.00362445393973803
0.00364161300261744
0.00365388910972566
0.00366146084753935
0.00366451231457947
0.00366322666107407
0.00365777906986338
0.00364832615548383
0.00363500370040488
0.00361793129391122
0.00359723522726016
0.00357307077062829
0.00354561607445969
0.00351505179496935
0.00348154262584731
0.00344520438525194
0.00340609857652265
0.00336421767063567
0.00331952177067479
0.00327197025043875
0.00322148919745414
0.00316797718654925
0.00311120679273037
0.00305084643270272
0.00298629015548658
0.00291679257108221
0.00284112256893885
0.00275790884535595
0.00266476749517664
0.00255935774672061
0.00243732640603399
0.00229229977338416
0.00211514674243214
0.00198964921741981
0.00204014496850713
0.00214842401413059
0.00230405043540416
0.00246684308908114
0.00264539738914942
0.00284024644440209
0.00306505752803501
0.00329338350249053
0.00351340335316005
0.00370421172944094
0.00385100581821064
0.0039118961647422
0.00391245935067045
0.0038878140911293
0.00386197189914951
0.003860744014043
0.00392679716808169
0.00414207194094048
0.00448411772369572
0.00499894321337312
0.00577893627758277
0.00678542033525779
0.00759590670304072
0.00712092665386681
0.00618853437709133
0.00531199298230974
0.00504516836565869
0.00996745321049325
0.00908202557934275
0.00671827543348734
0.00317582608415584
0.00054056272530797
8.14958965125098e-05
4.44639318777939e-05
2.81452301790412e-05
2.51299630561534e-05
2.22655857853795e-05
2.15787229779248e-05
2.34137578342438e-05
2.81618629193078e-05
3.64620681325831e-05
5.07417439638609e-05
7.39035889277506e-05
0.000109120043149678
0.000158608941281628
0.00022456199597223
0.000307320493285441
0.000404153370650565
0.000510446392213335
0.000623558910040501
0.000737837045073514
0.000843473262330674
0.000935055782661098
0.00102474654122089
0.00115712008773747
0.00143530950642535
0.00178323302239238
0.00209895416733306
0.00239072142389892
0.00266524719407376
0.00292481414538277
0.00317205084503525
0.00340856360616633
0.0036355336995081
0.00385376176907474
0.00406378064712793
0.0042659411681456
0.00446047239987835
0.00464753757014242
0.00482729550067541
0.00499993970652742
0.00516553878960127
0.0053237707154847
0.00547385502853255
0.00561487818235984
0.00574689009691221
0.00586991645563415
0.00598393850984219
0.00608897639122267
0.00618507392581869
0.00627230281325224
0.00635076445207768
0.00642058949066168
0.00648193658339114
0.0065349897697413
0.00657995557817454
0.00661705979732931
0.00664654429399908
0.00666866390193007
0.00668368259810309
0.00669186897368272
0.00669348833082348
0.00668879351245676
0.00667801207605558
0.0066613425921178
0.0066389609184541
0.00661104942545496
0.00657782552538247
0.00653953498597748
0.00649642626288448
0.00644872432494089
0.00639659010321911
0.00634010881758326
0.00627927206582153
0.00621402261782653
0.00614429340283723
0.00606997409902392
0.00599090546215829
0.00590676746029078
0.00581707471767089
0.00572099023448796
0.00561742742215987
0.00550467921248697
0.00538071901221114
0.00524218245534062
0.00508546469613051
0.00490383144478804
0.00468864350059873
0.00441783747434989
0.00421444760027734
0.00427721986289474
0.00445899385289159
0.00472690530487186
0.00502894327117444
0.00536959728422932
0.0057510041405965
0.00618450596199363
0.00663248467788616
0.00707040103400437
0.00746727005221853
0.00779762789431122
0.00800809503176584
0.00812886399377348
0.00821078771133851
0.00829285802580303
0.00841425359640052
0.00864044233395694
0.00908702383984997
0.00972090367994042
0.0105806764719447
0.0117449437785165
0.013136699327302
0.0142745066022003
0.0136467045581245
0.0119904978784688
0.0105395685620813
0.0101701052414648
0.0135797200671303
0.0127204759454552
0.0102798354081207
0.00607203810828007
0.0015818139883419
0.000250357693937784
0.00011721517026759
7.39748472123922e-05
6.6262949971366e-05
5.89826895589484e-05
5.7111587551407e-05
6.17463132420126e-05
7.38874436590941e-05
9.49772986179241e-05
0.000130563238199943
0.000186470181664378
0.000267590276575511
0.000374780012586954
0.00050721796495397
0.000659958581184229
0.000824212178038564
0.000991689379836874
0.0011598769138845
0.00132348814157907
0.00147422026299871
0.00161249975462933
0.00175966500318143
0.00197475305429227
0.00236833105910524
0.00283320051227914
0.00325109945032155
0.00363606792384209
0.00399641275846586
0.00433569563867408
0.00465752728874031
0.0049642036813393
0.00525742470047673
0.00553836866860897
0.00580785010411781
0.00606642837437617
0.00631448871308934
0.00655230609739716
0.00678008758468092
0.00699794217123794
0.00720565330190493
0.00740277023184396
0.00758878074520468
0.00776335469327473
0.00792656988091
0.0080784655423708
0.0082190813390563
0.00834848737387733
0.00846677889483736
0.0085740804145338
0.00867054792976744
0.00875636868827454
0.00883175980387609
0.00889696538223887
0.00895225320090343
0.00899791100821302
0.00903424282152387
0.0090615652651685
0.00908020326479811
0.00909048497062984
0.00909273352791035
0.00908725722895785
0.00907433626399914
0.00905421791232618
0.0090271227860803
0.00899327551403446
0.00895293599240969
0.00890639390462902
0.00885394145359095
0.00879584335965441
0.00873229426844353
0.00866340257033359
0.00858917136194441
0.00850954414746559
0.00842444688566783
0.00833375992482874
0.00823730288962375
0.00813472734746077
0.00802548818727138
0.00790867237807917
0.00778305537927476
0.00764677354984017
0.00749753649264757
0.00733166207160756
0.00714502374749186
0.00692996864838614
0.0066770643370453
0.00635784683379419
0.00610881807043937
0.00616254245632667
0.00638546328414943
0.00672362334001594
0.00712210941064502
0.00757841150954953
0.00809471935545069
0.00867714350097341
0.00928384638172586
0.00988131153632822
0.0104335773421184
0.0109095328677326
0.0112565149246026
0.0115038675115078
0.0117084487588434
0.0119175035904997
0.0121764016182711
0.0125590218623539
0.0131878833897379
0.0140346699246096
0.0151250432673727
0.0165169284990832
0.0181311002474905
0.0195217081754609
0.0190819934929529
0.0170380335160192
0.0147714454149302
0.0138813498208704
0.0164056038048407
0.0155282784993618
0.0131097564843371
0.0088673337455786
0.00326221268887391
0.000620924730377081
0.000246061865654513
0.000153306042723086
0.00013841103285966
0.00012418890354284
0.000120264986808548
0.000129429422251844
0.000153442472349986
0.000194403501686496
0.00026084035942886
0.000359472008320074
0.000492808486706673
0.000655901565400406
0.000842582067665908
0.00104380907531511
0.00124943655011295
0.00145299173152282
0.00165474974476106
0.00185172028654161
0.00203919546487682
0.00222351401375932
0.00243399568316122
0.00273724848059013
0.00322939574063481
0.00378119850796752
0.00427517455161565
0.00473013490764774
0.00515517151429065
0.00555487011052104
0.00593344093456283
0.00629362576924139
0.00663744938825958
0.00696632937503591
0.00728125954284582
0.00758293080160298
0.00787182177340747
0.0081482577602023
0.0084124295776895
0.00866431665923296
0.00890362099847089
0.00913001661771282
0.00934322138930687
0.00954315479002415
0.00972990122095617
0.00990352457814845
0.0100641066010411
0.0102117553306374
0.0103466052452609
0.0104688213091188
0.0105786014722184
0.0106761766183231
0.0107618090763771
0.0108357895504466
0.0108984334465665
0.0109500767644049
0.0109910719352421
0.0110217836851152
0.0110425843527661
0.011053848496252
0.0110559446806447
0.0110492255253029
0.0110340144636813
0.0110105998981422
0.0109792404043978
0.0109401950706849
0.010893756677865
0.0108402482599113
0.0107799955046041
0.010713294660248
0.0106403692227975
0.010561350415625
0.0104762568434913
0.0103850387805074
0.0102876226828727
0.0101838891783392
0.0100736518735451
0.00995655693027195
0.00983203715938785
0.00969915734849745
0.00955663479896607
0.0094025573983781
0.00923452159996607
0.00904875099776226
0.0088408762397031
0.00860288477736379
0.0083248454054052
0.00797591685008406
0.00769648736364812
0.00773456640610731
0.00798084030127705
0.00836555895857768
0.00883218346034504
0.00937181199002807
0.00998540090543771
0.0106742310880231
0.0113944541234032
0.012106291056696
0.012770602691062
0.0133532482159783
0.0138052363779658
0.0141546249722255
0.0144604936073613
0.0147746892851771
0.0151460366595635
0.0156518692641818
0.0164142489026757
0.0174142017377152
0.0186697263806853
0.0202209450842598
0.0219873168327412
0.0235516735574474
0.0233518910215466
0.0212950074826192
0.0185209975832101
0.0170017449431217
0.0189148520829915
0.0179283726307565
0.015505615461251
0.0113625703307559
0.00527445120739799
0.00128306503263676
0.000441858235022943
0.000265854773043799
0.000242409928095975
0.00021990771885227
0.000213018048467265
0.000227628571330649
0.000265962116072523
0.000329799713284688
0.00042863481425349
0.000567114674042531
0.000743062240681501
0.00094638686936755
0.00116835982645691
0.00139960899169219
0.001631816598734
0.00186144367198291
0.00209090873788655
0.00231922884103115
0.00254511255072353
0.00277983114479816
0.00305827306191323
0.00344720877450055
0.00402140105915622
0.0046395948319995
0.00519327448895225
0.00570413631102898
0.00618150506945757
0.00663057647504777
0.00705583325972885
0.00746025758512413
0.00784605179037304
0.00821477280473621
0.00856752170172614
0.00890506787106111
0.00922794064457999
0.00953647740349104
0.00983083854786759
0.0101109218023346
0.0103764989254706
0.010627353343175
0.0108633521687737
0.0110845221140692
0.0112909553193002
0.0114827420327906
0.0116599969329491
0.0118228594074124
0.0119714964037549
0.0121061065106287
0.0122269226894813
0.0123342123906753
0.0124282759918299
0.0125094435592009
0.012578070858545
0.0126345348703153
0.0126792291987252
0.012712559503882
0.0127349384997964
0.0127467803729116
0.0127484927487762
0.0127404669313563
0.0127230648279607
0.0126966120902119
0.0126614016471823
0.0126177228110133
0.0125658961736157
0.0125062726969995
0.012439206422069
0.0123650212422331
0.0122839673248849
0.0121961990043827
0.0121017526998842
0.0120005888041418
0.0118926386675828
0.0117777885450808
0.0116558548408648
0.0115264904846623
0.0113891269873229
0.011242833918533
0.0110863130533792
0.0109176556909041
0.0107344233565938
0.0105328477811353
0.0103084564081683
0.0100531442919227
0.00975670237366069
0.00938798018150754
0.0090866174695468
0.00910762679813975
0.00936703535452491
0.00978455880310978
0.0103021179292805
0.0109053234896314
0.0115931221774234
0.0123625142987802
0.0131683400267266
0.0139662117549091
0.014714686398374
0.0153780699911831
0.0159117614553134
0.0163429429141349
0.0167312389555744
0.0171309525450432
0.0175929597429171
0.0181960921364201
0.0190598179492572
0.0201743224228885
0.0215536017699545
0.0232234618104833
0.0250989232688323
0.0267787972017605
0.026766677548786
0.0248203068283487
0.0218615684966498
0.0198713363466949
0.0212363753984516
0.0200992524673955
0.0176641429979338
0.0135620850499117
0.00736337596408196
0.00225842367421714
0.000714226924046749
0.000401679091357514
0.000368498536547281
0.000338740237715987
0.000328269064114457
0.000347805785009896
0.000399808978313941
0.000484924246719407
0.000611863634084219
0.000782165739488343
0.000989446835632232
0.00122075795808058
0.00146698188310912
0.00171998194174276
0.00197376689418213
0.00222718917942636
0.00248411316527898
0.0027452765741811
0.00301237954026778
0.00330044575969609
0.00364701260309532
0.004114119206879
0.0047558652380384
0.00542741966208009
0.00603103864458305
0.00658947388668045
0.0071119219175918
0.0076038766673908
0.008069896483841
0.00851308293849463
0.00893573242548312
0.0093394864345223
0.00972551403660017
0.0100946345025565
0.0104474064339878
0.0107841689346731
0.0111050518551972
0.0114099602065571
0.011698740310508
0.011971261580388
0.0122274833567661
0.0124674818438553
0.0126913609355029
0.0128992363917003
0.0130912509815947
0.013267571849665
0.0134283946321521
0.0135739476671026
0.0137044949459029
0.0138203364042507
0.0139218063186863
0.0140092699217959
0.0140831191243531
0.0141437676750896
0.014191646162448
0.014227197044493
0.0142508693616613
0.0142631130443012
0.0142643711493006
0.0142550704708818
0.0142356087160398
0.0142063466537855
0.0141676095509819
0.0141197144977408
0.014063006956532
0.0139978627144173
0.0139246612969103
0.0138437522083901
0.0137554113112623
0.0136598166532263
0.0135570242574917
0.0134470071070097
0.0133297047163603
0.013205012853798
0.0130727570228024
0.0129326051619757
0.0127840014477253
0.0126260374188644
0.0124574270273704
0.0122762967450785
0.012080221347292
0.011865502666013
0.0116276544795459
0.0113586279097009
0.0110481169650297
0.010665763219115
0.0103480478593829
0.0103523553470708
0.0106185100851614
0.0110599718944683
0.0116171970686778
0.0122710630538691
0.013018050093108
0.0138512758950206
0.0147244732618101
0.0155897156979758
0.0164038494020424
0.0171306279335922
0.0177300053825735
0.0182287295802987
0.0186861066098031
0.0191575324668631
0.0196950289373219
0.0203778976719124
0.0213222960725473
0.0225263639736394
0.0240018995041124
0.0257629945455627
0.0277179958133924
0.0294741215502489
0.029591163325664
0.0277685264838779
0.0247915689148914
0.0225114865622356
0.0233919565168422
0.0221045516285003
0.0196652418408168
0.0155608454379171
0.00942200721480848
0.00350702273137156
0.00108256077283392
0.000550874841131754
0.000502343880855463
0.00046853423915098
0.000454746856228407
0.000478207238708637
0.000542068937185992
0.000645683587802157
0.000796066787779014
0.00099158909152336
0.00122259033042671
0.00147490368607973
0.00174008014205671
0.00201162640650665
0.00228564341140433
0.00256282353765027
0.00284811930546692
0.00314376796270733
0.00345392304494481
0.00379607088685648
0.00420794865814156
0.00474475270295955
0.00544329303963163
0.00616024923500471
0.00680786108303749
0.00740874651743734
0.00797178963458527
0.0085025850150963
0.00900565630890659
0.00948415482919803
0.0099404239260105
0.0103761594239656
0.0107925769019596
0.0111905303519921
0.0115705977329698
0.0119331218763941
0.0122782222131701
0.0126058472094595
0.0129159059235916
0.0132083331927862
0.0134831454008517
0.0137404443149882
0.0139803484918089
0.0142029978798312
0.0144085606379918
0.0145972295762953
0.0147692267735936
0.0149248079825664
0.0150642658048002
0.0151879301703376
0.0152961667201847
0.015389373293369
0.0154679753801928
0.0155324209408663
0.0155831750141032
0.0156207143624121
0.0156455219189372
0.0156580810287547
0.0156588680081462
0.0156483432466114
0.0156269386991611
0.0155950490812303
0.0155530309010464
0.0155012276102925
0.0154400077889995
0.0153697702090106
0.0152909182205346
0.0152038258630436
0.015108794344917
0.0150060261977739
0.0148955986077513
0.0147774992009985
0.0146516783492678
0.0145180445119352
0.0143764372623331
0.0142265458371955
0.0140678374552996
0.013899438004957
0.013720093491049
0.0135279862914206
0.0133207419122776
0.0130947694217039
0.01284563281938
0.0125654328067546
0.0122439110498487
0.0118520712681344
0.0115220088635906
0.0115106812381572
0.0117793594572118
0.0122385682937001
0.012827506166715
0.0135229201499413
0.0143185562954448
0.0152039233305869
0.0161316692876129
0.0170510744085326
0.0179177645387979
0.0186957071903445
0.0193494071501755
0.019905498150893
0.0204224461246494
0.0209558060045079
0.0215580773479019
0.0223083519597122
0.0233192121986391
0.0245955112516867
0.0261476139589791
0.027979823385402
0.0299928046113466
0.0317983885582655
0.0319971805526623
0.0302796474247257
0.0273548857165274
0.0249135532064097
0.0253867381164096
0.0239686696490945
0.0215355066357213
0.0174448151843135
0.0114055818558618
0.00501119276756532
0.00157390448471957
0.000714305649515361
0.000634009949637422
0.000599999016267809
0.000584271766108197
0.000611138628097105
0.000685448390300201
0.000805386220846277
0.000975749811458662
0.0011919215309382
0.00144187124840736
0.00171130267953677
0.00199289966760467
0.00228180161248383
0.00257587697282827
0.00287728336336805
0.00319186503963192
0.00352312527815965
0.00387707666542141
0.00427248815148159
0.00474564960767023
0.00534454411957303
0.00609230202217702
0.00684970678109387
0.00753753663221323
0.00817758937461868
0.00877834363820065
0.00934536580273132
0.00988307980873629
0.0103946430198834
0.0108824171610524
0.0113481345252635
0.0117930449275934
0.0122180292561146
0.0126236814717146
0.0130103542451795
0.0133781783115511
0.0137271519726885
0.0140572370900463
0.0143684179643932
0.0146607470239317
0.0149343415975211
0.0151893365654968
0.0154258949159864
0.0156442086918082
0.0158444951554175
0.0160270015013455
0.0161920094968297
0.0163398388914688
0.016470848100967
0.0165854325991838
0.0166840212910572
0.0167670717109687
0.0168350645092993
0.0168884976760404
0.0169278808103494
0.016953729308948
0.0169665585634128
0.0169668768702913
0.0169551771106971
0.0169319246248197
0.0168975475119021
0.016852433026793
0.0167969502329892
0.0167314898250668
0.016656472505519
0.0165723245272533
0.0164794439575524
0.0163781573706708
0.0162686926524484
0.0161511495885065
0.0160255322583084
0.0158918042371792
0.0157498894436996
0.0155996456778617
0.015440788612869
0.0152728166968638
0.0150948997331696
0.0149058301011135
0.0147038638050471
0.0144867027169243
0.014250889402658
0.0139920854110686
0.0137026032341211
0.0133723449619775
0.0129739430799121
0.0126345500205475
0.0126089145971813
0.0128772309521991
0.0133496071391666
0.0139642956776425
0.0146944082810217
0.0155308061986539
0.0164595794614776
0.017432247050818
0.0183958553170339
0.0193052606331246
0.0201252763688535
0.0208248848077154
0.0214307885734565
0.0220002379895555
0.0225882561063151
0.0232472802572816
0.0240556660149328
0.0251223240837944
0.0264577696047099
0.0280712076973115
0.0299587959423016
0.0320135610168817
0.0338500607372888
0.0340943422329194
0.0324566391554727
0.0296092757006586
0.0270878264152534
0.0272282137116407
0.0257043956433092
0.0232861580891208
0.019255261357722
0.0133171617426998
0.00669660356289506
0.0022172444234156
0.000906119169473077
0.000760763740165175
0.000728840162681987
0.000713323330084425
0.00074361562684249
0.000827438839577669
0.000962038733447222
0.00114973558069024
0.00138328087373871
0.00164909808998306
0.00193341399629485
0.00223018330104014
0.00253603762860651
0.00285033603847523
0.00317644891572074
0.00352097238256544
0.003888423221377
0.00428609578855607
0.00473309625984427
0.00526332395363704
0.00591801134092242
0.00670967371364403
0.00750435251344961
0.00822993090348756
0.00890700288965943
0.00954358778847712
0.010145132802032
0.0107159198822492
0.0112590816061646
0.0117769789052786
0.0122713690035317
0.0127435286253401
0.0131943618232649
0.0136244793283709
0.0140342490259923
0.0144238285622283
0.0147932633813698
0.0151425601130409
0.0154717408162102
0.015780881615068
0.0160701113555276
0.0163395820979308
0.0165894790805483
0.0168200174751096
0.0170314383793168
0.0172240134047018
0.017398049577082
0.0175538929955032
0.0176919297357472
0.0178125842715708
0.0179163157439727
0.0180036129140075
0.0180749883221846
0.018130972130398
0.0181721060176442
0.0181989371077403
0.0182120121278337
0.0182118706799392
0.0181990375644515
0.0181740111090965
0.0181372526594391
0.018089180155015
0.0180301879931929
0.0179606885001213
0.0178811237951489
0.017791942608712
0.0176935668992896
0.0175863488625662
0.0174705426761341
0.0173462720924454
0.0172135592972441
0.0170723831887944
0.0169226856532967
0.016764346332777
0.0165971117209543
0.0164205182172819
0.0162337867540167
0.0160357689717802
0.0158248065816845
0.0155986980263485
0.0153541383341852
0.0150869222622775
0.0147896166862502
0.0144523694831887
0.0140495316901208
0.0137031477797745
0.0136645942575893
0.0139305408011602
0.0144125492434748
0.0150482984522006
0.0158076866841207
0.0166786164617954
0.0176438949936885
0.0186538490610433
0.0196537427320717
0.0205981019169273
0.0214531289115185
0.0221921682251995
0.0228420495654209
0.0234584904654207
0.0240954337349658
0.0248047880885397
0.0256637212163574
0.0267774453973325
0.0281613142551823
0.0298234518230206
0.0317535701204511
0.0338380314588842
0.0356927078714511
0.0359544619582162
0.0343723960937806
0.0316072470863038
0.0290553852401806
0.028926862242619
0.0273212859172816
0.0249259903511237
0.021003212871878
0.015165373927726
0.00848354039704568
0.00305207212313152
0.00115259033477244
0.00088573384744996
0.000854032353178398
0.000841107265931228
0.00087512609409543
0.00096769235783248
0.0011154776097498
0.00131831380819452
0.00156678364329263
0.00184641141175782
0.00214427325458013
0.00245557523688723
0.00277827990941132
0.0031130189641077
0.0034641925215157
0.00383902684022882
0.00424279867933785
0.00468357415598948
0.00518010729200817
0.00576345973837661
0.00646888212542297
0.00730068577382273
0.00813056100332521
0.00889225641758943
0.00960494957463713
0.0102761609944285
0.0109111483597601
0.0115140204037997
0.0120878602760061
0.012635013692515
0.013157254544415
0.0136558818563788
0.0141318212479199
0.0145857025256154
0.0150179137486339
0.0154286477228594
0.0158179926658208
0.0161859936090121
0.0165327021022248
0.0168582108359054
0.0171626587421171
0.0174462155058447
0.0177090882147872
0.0179515149425548
0.018173760457226
0.0183761205642018
0.0185589272814686
0.01872255276447
0.018867410444089
0.0189939534931961
0.0191026709995559
0.0191940826785655
0.0192687327070007
0.0193271831825424
0.019370007641767
0.0193977847167019
0.0194110922459261
0.0194105009040146
0.0193965672222886
0.0193698224551841
0.0193307613765098
0.0192798328830333
0.0192174567861483
0.0191440669490895
0.0190601267964963
0.0189661074726937
0.0188624549494439
0.0187495474577038
0.0186276664535869
0.0184969609834148
0.0183574728820497
0.018209198332313
0.0180520995220985
0.0178860811678759
0.0177109244330457
0.0175262090564584
0.0173312139671142
0.0171248596406546
0.0169055832887517
0.0166712956547143
0.0164188582857868
0.016144226102375
0.0158402497044421
0.0154973849017512
0.0150916882217708
0.0147401630760707
0.0146900474665103
0.0149522148371953
0.0154410347463702
0.0160940062066764
0.0168781857812018
0.0177784960152376
0.0187745619704128
0.0198154589619981
0.0208450609076281
0.0218180039544763
0.0227023550542578
0.0234756670784763
0.0241648458555665
0.0248237759444111
0.0255048571780725
0.0262590464419673
0.0271619078804558
0.0283149613392942
0.0297377653086307
0.0314374092804465
0.0333992881453294
0.0355050000223406
0.0373695263624922
0.0376262129737251
0.0360787524535286
0.0333916970432279
0.0308396082906166
0.0304942804119903
0.0288278675421734
0.0264636023596599
0.0226842121951028
0.0169529400235475
0.0103160784358947
0.00412414824077145
0.00147896590690876
0.0010167824806009
0.000976228055984556
0.000967881316265634
0.00100603668382702
0.00110656377226011
0.0012661045152587
0.00148219302470089
0.00174370839836253
0.00203572538516651
0.00234628946352352
0.00267177455043372
0.00301132508467002
0.00336667313776432
0.00374310467376819
0.00414836250023867
0.00458824739637315
0.00507117708091821
0.00561508845419771
0.00624807074568041
0.00700020888718819
0.00786945912351716
0.00873316502706031
0.00952991762179913
0.0102773604210585
0.0109824788739203
0.0116502819184947
0.0122846787082098
0.0128886810105723
0.0134646071360011
0.0140142410038838
0.0145389007967064
0.015039533097383
0.0155167891263904
0.0159710819021253
0.0164026417792291
0.016811595982392
0.0171980230068108
0.0175619982580312
0.0179036270237532