/*--------------------------------*- C++ -*----------------------------------*\
  =========                 |
  \\      /  F ield         | OpenFOAM: The Open Source CFD Toolbox
   \\    /   O peration     | Website:  https://openfoam.org
    \\  /    A nd           | Version:  7
     \\/     M anipulation  |
\*---------------------------------------------------------------------------*/
FoamFile
{
    version     2.0;
    format      ascii;
    class       volScalarField;
    location    "10000";
    object      nut;
}
// * * * * * * * * * * * * * * * * * * * * * * * * * * * * * * * * * * * * * //

dimensions      [0 2 -1 0 0 0 0];

internalField   nonuniform List<scalar> 
15600
(
1.29226080558834e-08
1.10090765079817e-08
5.63480135899383e-09
1.70514720659012e-09
1.90334538043932e-10
2.79892191597626e-11
1.98951368614072e-11
1.31435910930745e-11
1.27394464969016e-11
1.23591435870867e-11
1.35268944581935e-11
1.65954341320776e-11
2.22873267070004e-11
3.18827801700456e-11
4.86472699202715e-11
7.7123666843447e-11
1.23708554230767e-10
1.96936226982029e-10
3.08935968539226e-10
4.74057201997079e-10
7.06404484236142e-10
1.01716375194749e-09
1.41449823664015e-09
1.88382644392846e-09
2.37114966684967e-09
2.80633112572278e-09
3.16148690656624e-09
3.49901628150885e-09
4.63547665862157e-09
6.52962073920133e-09
8.46012034659533e-09
1.04013597207379e-08
1.23524260021841e-08
1.43028055108527e-08
1.6249634082347e-08
1.81915456404309e-08
2.01254536162882e-08
2.20483960115401e-08
2.39560228776073e-08
2.58436577752817e-08
2.77061581129619e-08
2.95384533622633e-08
3.1336130892206e-08
3.30968224192916e-08
3.48220233986058e-08
3.65153082878821e-08
3.81713200449516e-08
3.97347864065896e-08
4.11898705068946e-08
4.2553694394082e-08
4.38210122454487e-08
4.49882355855671e-08
4.60525499068432e-08
4.70119950799276e-08
4.78654860708278e-08
4.8612787128642e-08
4.92544758876208e-08
4.97918769013414e-08
5.02269900644957e-08
5.05624095585613e-08
5.08012426963983e-08
5.09470309430107e-08
5.10036555722992e-08
5.09752383509101e-08
5.08659740362619e-08
5.06799647721188e-08
5.04209727124321e-08
5.00923751813144e-08
4.96972475192844e-08
4.92388301399532e-08
4.8720975395878e-08
4.81479862357975e-08
4.75241738818728e-08
4.68535022559191e-08
4.61389099857959e-08
4.53822842128669e-08
4.45841907471229e-08
4.37446660992722e-08
4.28638663864943e-08
4.19413593717376e-08
4.09763864269198e-08
3.99658850752733e-08
3.89053107830567e-08
3.77853113884704e-08
3.65950862382919e-08
3.53157451352645e-08
3.39281436870634e-08
3.23974086680901e-08
3.0694290549164e-08
2.87619813164775e-08
2.65120494663674e-08
2.38433303778295e-08
2.20800735229312e-08
2.27433320486816e-08
2.34831018642137e-08
2.4245295617574e-08
2.44398863462071e-08
2.42747994633837e-08
2.38076679369104e-08
2.33712500609749e-08
2.28698704945134e-08
2.23019644417196e-08
2.15620930261525e-08
2.06410264798966e-08
1.92839805548537e-08
1.76049732055857e-08
1.58386709713679e-08
1.41410862256254e-08
1.262195817434e-08
1.13995406004905e-08
1.07724264574978e-08
1.07595561293625e-08
1.15029162550038e-08
1.34967970416231e-08
1.72536891525635e-08
2.21262950008215e-08
2.06881124701904e-08
1.62631360685802e-08
1.27211421926233e-08
1.29986923694558e-08
2.37214789904268e-06
1.99039519249293e-06
1.00155003362286e-06
3.18483621787422e-07
3.940231760498e-08
5.97131483335111e-09
3.93555945078848e-09
2.58259922085342e-09
2.47766646735681e-09
2.39810750349395e-09
2.60794106319732e-09
3.17903894526764e-09
4.24770668675867e-09
6.04812181614554e-09
9.18915807144207e-09
1.45237303274511e-08
2.32665634111714e-08
3.70259628783661e-08
5.81106666776964e-08
8.93083119055562e-08
1.33416492347245e-07
1.92537997152152e-07
2.68336198247852e-07
3.58929864179585e-07
4.53980758067302e-07
5.39053965226548e-07
6.04414215133373e-07
6.49548404435866e-07
8.47935481648351e-07
1.19211227994275e-06
1.54281390496477e-06
1.89425765364783e-06
2.24646835439838e-06
2.59756252346187e-06
2.94716824952943e-06
3.29528771025395e-06
3.64158500000692e-06
3.98577555482695e-06
4.32730205745177e-06
4.66554420300305e-06
4.99978031225383e-06
5.32928311632077e-06
5.65341332778227e-06
5.97185642704318e-06
6.28496522233687e-06
6.59331365266388e-06
6.89456404989874e-06
7.18089384566537e-06
7.45076160782567e-06
7.70538588534233e-06
7.94375852173254e-06
8.16517136114305e-06
8.36903412696577e-06
8.55488965197711e-06
8.72242166647936e-06
8.87145335667792e-06
9.00194500245546e-06
9.11398556070922e-06
9.20778344615867e-06
9.28365525723485e-06
9.34201411232209e-06
9.38335847929661e-06
9.40825721089931e-06
9.41733468065723e-06
9.41124087208847e-06
9.3906240699853e-06
9.35608240137978e-06
9.30815544661645e-06
9.24733348127411e-06
9.17414133342836e-06
9.0892296494644e-06
8.99335063229256e-06
8.88727308980322e-06
8.77172220950277e-06
8.64724027180494e-06
8.51418683019848e-06
8.37267340912997e-06
8.22270772451952e-06
8.06433334428899e-06
7.89747495130214e-06
7.7220221341901e-06
7.53740397506812e-06
7.34281220378348e-06
7.13645723941647e-06
6.91635619840194e-06
6.67884037431675e-06
6.420353935605e-06
6.13407435862683e-06
5.81447934630836e-06
5.45081216987962e-06
5.02615743064238e-06
4.5219541450262e-06
4.18864362920487e-06
4.32846783981707e-06
4.47504081494087e-06
4.63620549330807e-06
4.68507612052023e-06
4.6683453652987e-06
4.59369785112767e-06
4.52596438896181e-06
4.43804347219398e-06
4.33200674004548e-06
4.18554324845334e-06
3.99725211583454e-06
3.71651207211395e-06
3.38091775303236e-06
3.03541121763904e-06
2.70707268882739e-06
2.41769916930521e-06
2.19132976318833e-06
2.08256122275085e-06
2.08057603046711e-06
2.22010936575822e-06
2.58984396566336e-06
3.23387755002565e-06
3.9165835021643e-06
3.40208137321185e-06
2.6340076042617e-06
2.12568779106182e-06
2.29955459902532e-06
3.48503128368123e-05
3.16941258852724e-05
2.02604424008806e-05
7.45204883381814e-06
9.87647317716716e-07
1.48266771660553e-07
9.01164156434807e-08
5.86712170740301e-08
5.58112872321949e-08
5.39332323580865e-08
5.83007994297461e-08
7.05613923106953e-08
9.39145472059538e-08
1.33512880519888e-07
2.02651501748543e-07
3.20196629093243e-07
5.12544607958054e-07
8.14617194282146e-07
1.27495700042011e-06
1.94910732194072e-06
2.887732018576e-06
4.12641941266104e-06
5.67527384089927e-06
7.45980967342092e-06
9.30470469972914e-06
1.08505575965363e-05
1.19986264108592e-05
1.37499914944248e-05
1.81113338985007e-05
2.41986415785728e-05
2.9980536931845e-05
3.5492293852648e-05
4.08052830229647e-05
4.59290421918178e-05
5.08933050518437e-05
5.571535989383e-05
6.04075109096993e-05
6.49772059388227e-05
6.94280145490077e-05
7.37610783227625e-05
7.79759164812128e-05
8.20713813944073e-05
8.60466653647309e-05
8.99026216525117e-05
9.36456100589066e-05
9.73144759951082e-05
0.000100997906617477
0.000104505534538949
0.00010781607440741
0.000110937615072136
0.000113863648393605
0.00011659019648961
0.000119114027530157
0.000121432841052999
0.000123545352659252
0.000125451295719995
0.000127151415155573
0.000128647407478031
0.00012994185611498
0.000131038150759744
0.000131940406251427
0.000132653387209261
0.000133182399378164
0.000133533176147953
0.000133711619809589
0.000133723542486234
0.000133574192674931
0.000133268142393836
0.000132809374661048
0.000132202180705743
0.000131452167884372
0.000130566070059065
0.000129550911920006
0.000128413347684597
0.000127158204859153
0.000125788355697721
0.000124303942042605
0.000122703849745256
0.000120987170309321
0.000119151641230809
0.000117194311202337
0.000115107018552939
0.000112878150353234
0.000110484563180659
0.000107898936102596
0.000105073263990748
0.000101956696777649
9.84557007096605e-05
9.44838834344924e-05
8.98832191570171e-05
8.43882141152925e-05
7.78136726604514e-05
7.33206748530631e-05
7.47833708042317e-05
7.68062043241191e-05
7.89546320321121e-05
7.96351493598697e-05
7.94143684114716e-05
7.84214422208142e-05
7.74553653910338e-05
7.61797248788738e-05
7.45757506812724e-05
7.23449576176186e-05
6.94283881968056e-05
6.51433549046056e-05
5.99622072074819e-05
5.451058867975e-05
4.92007485598394e-05
4.43880932556769e-05
4.05059268044819e-05
3.84259348085812e-05
3.79549679833025e-05
3.95415597929883e-05
4.41788316669544e-05
5.19387465556324e-05
5.9084577038122e-05
5.45027755589104e-05
4.47406269479557e-05
3.6245876964593e-05
3.44407874729722e-05
0.000123846676226041
0.000119501260339433
8.58570785781872e-05
4.09092648369482e-05
8.39584415024976e-06
1.3903954778829e-06
7.61930415439577e-07
4.90881432992164e-07
4.63770146040792e-07
4.47602645170139e-07
4.80541168003777e-07
5.76278743651749e-07
7.60526730106886e-07
1.07023735153955e-06
1.60469905625923e-06
2.50147929412987e-06
3.9489658761977e-06
6.18044691878686e-06
9.49864960220687e-06
1.42017737033366e-05
2.04602537119139e-05
2.82258516349224e-05
3.7243230795749e-05
4.67649492042778e-05
5.54512899402796e-05
6.18323859252525e-05
6.65373214205565e-05
7.44817896001251e-05
9.39499914562108e-05
0.000119142086784042
0.0001419831329007
0.00016306331535865
0.000182790446051459
0.000201340029420395
0.000218918820912041
0.000235663520737349
0.000251677227181374
0.00026703343257896
0.000281783597591551
0.000295964124170682
0.00030960084568953
0.000322712951778021
0.000335317513560919
0.000347444902652807
0.000359229513697363
0.000370764400247913
0.00038196587306193
0.000392546016205109
0.000402496587515524
0.00041183415407436
0.000420553163129385
0.000428652899629889
0.0004361338126155
0.000442998055422086
0.000449249732584502
0.000454894934421413
0.000459941735673147
0.000464400057441809
0.000468281514985202
0.00047159922945249
0.000474367643973099
0.000476602358523827
0.000478319894700482
0.000479537445475515
0.000480272276673402
0.000480541079286532
0.000480358766766159
0.000479738084224746
0.000478689765377598
0.000477224919748383
0.000475357841894074
0.000473105683932776
0.000470486391624777
0.00046751691823514
0.000464209487919124
0.000460571004280348
0.000456600852037556
0.000452294659980082
0.000447648126179583
0.000442653330093404
0.00043729989494576
0.000431563722433342
0.000425409911314937
0.000418772590069476
0.000411570692990164
0.000403666520255666
0.000394906622115118
0.000385015700448242
0.000373721294152884
0.000360507978202117
0.000344690163753471
0.000325142862896258
0.000311006303615316
0.000314815770319643
0.000321077059435416
0.000327581308339008
0.000330034099594497
0.000329760776894482
0.000327290113431202
0.000324747611535944
0.000321155426685175
0.000316260307844876
0.000309148013317958
0.000299488591799436
0.000285142797791299
0.000267438881518152
0.000248351866066788
0.000229239765683085
0.000211345699139498
0.000196449992877356
0.000188033278582874
0.000185562810540246
0.000190589396024442
0.000206373536647364
0.000232532699833371
0.000255870320968546
0.000232800974814956
0.000183544762538357
0.000136734945280929
0.000122094698145346
0.000261827660457514
0.000255997258829605
0.000188251226047252
9.55099258408301e-05
3.33306980586451e-05
7.72666739976773e-06
3.80054105837235e-06
2.40059674595817e-06
2.25292225839902e-06
2.17013788030191e-06
2.30746110719557e-06
2.72985318669648e-06
3.54677701819867e-06
4.89152252913757e-06
7.15428923666095e-06
1.08424962745323e-05
1.66021502295493e-05
2.50967970062841e-05
3.7035953350071e-05
5.28164413044387e-05
7.21252163787938e-05
9.39288169154057e-05
0.000116940145283336
0.000138877478061741
0.000156577299444367
0.000168385635622405
0.000178184405685358
0.000197595173901288
0.000244093882856727
0.000301643892364922
0.000351928392553934
0.000397159983394326
0.000438504217023413
0.000476634088469496
0.000512173949853975
0.000545547255407186
0.000577069491245919
0.000606969370005401
0.000635413225876383
0.000662524217462885
0.000688395614459551
0.000713103497245366
0.000736731204699691
0.000759454666857628
0.000781422219223042
0.000802586372092643
0.000822797801050728
0.000841794590093382
0.000859599030975786
0.000876237902680217
0.000891716618862403
0.000906045743793225
0.000919236696986657
0.000931302755002574
0.000942259563268708
0.000952125293098104
0.000960920699465117
0.000968668947064359
0.000975395396460189
0.000981127328795249
0.000985893675991099
0.000989724777718861
0.000992652037335448
0.000994707534852454
0.00099592309895725
0.000996329215963969
0.000995953044294466
0.000994817610824601
0.000992942005480527
0.000990345464205391
0.000987052311766733
0.000983091627944993
0.000978493917202117
0.000973287936636008
0.000967494538549911
0.000961125268885019
0.000954178546311943
0.000946645901643618
0.00093851835246887
0.00092978096263256
0.000920413762538697
0.000910374139773881
0.000899598989425737
0.000887973587380103
0.000875352321107815
0.000861494978896507
0.000846125028431584
0.000828758595447393
0.000808899369803132
0.000785603339798086
0.000757741006215304
0.000722517144448888
0.000696142436247913
0.000702311012040215
0.000714417070667276
0.000726975200697533
0.000733110715831542
0.000734482444783403
0.000732261388444649
0.000729790215921996
0.000725269388717529
0.000717898432441242
0.00070603883550059
0.00068889045339205
0.000662626126593018
0.000629536742368813
0.000593364548614991
0.000556705105211776
0.00052193356269646
0.000492871965388509
0.000476928707030629
0.000473460102066842
0.00048538344630577
0.000518891562924251
0.000572939641929461
0.000621782462868183
0.000572164149152937
0.000454366700381644
0.000323269249964345
0.000268473696742286
0.000459345562343856
0.000443504107889664
0.000329142531433656
0.000166696761824625
7.57935240745935e-05
2.85704240672116e-05
1.37704424778345e-05
8.39452010284819e-06
7.80819647426334e-06
7.48924999266721e-06
7.84620031172285e-06
9.09412419543909e-06
1.15155618080014e-05
1.53949438493277e-05
2.171388845288e-05
3.16322623869687e-05
4.64399111059833e-05
6.70698299092122e-05
9.420209332704e-05
0.000127497527139122
0.000165160141487914
0.00020455542077821
0.000243292465807818
0.000277725769801287
0.000303900085549583
0.000322085993686703
0.000341152692362672
0.000379806002227007
0.000462409184663303
0.000558957100909751
0.000641127895259155
0.000714030174131517
0.000779907358750066
0.000840119517260963
0.000895820070445713
0.00094778427652164
0.000996587261912015
0.0010426454588176
0.00108626506736292
0.00112767536823809
0.00116705489389134
0.00120455965232186
0.00124037100853375
0.00127474085626266
0.0013076867590574
0.00133914067828675
0.00136893559304567
0.00139687741123854
0.00142301487966461
0.00144738539735357
0.00147000877024377
0.00149090912427516
0.00151011102182736
0.00152764089011698
0.00154352783551945
0.00155780396035447
0.0015705044931782
0.00158166759190208
0.00159133406939385
0.00159954703065793
0.00160635151269387
0.00161179415331188
0.00161592273259219
0.00161878562922293
0.00162043056798404
0.00162090305472291
0.00162024362158129
0.00161848653779317
0.00161566001958434
0.00161179202117718
0.00160691741728925
0.00160107779421903
0.00159431688771791
0.00158667586258171
0.00157818477215655
0.0015688600688214
0.00155869914214685
0.0015476889511855
0.00153581492023464
0.00152305422841885
0.00150937576567682
0.00149471699955145
0.00147898356814729
0.00146200908113174
0.00144357706831719
0.00142333955362605
0.00140088512880592
0.00137551247190565
0.00134647899959426
0.001312387036474
0.00127160554352952
0.00121917648977376
0.00117896101484959
0.00118694195302273
0.00120633971422249
0.00122672950297434
0.00123887873994026
0.00124428994012343
0.00124489262629418
0.001244989984676
0.00124186709307196
0.00123387757267149
0.00121863633995513
0.00119475788536254
0.00115683803136015
0.00110812436128232
0.00105438010442831
0.000999664963495316
0.000947598321959973
0.000904385889847862
0.000881818370271483
0.000879492394445468
0.000901449426017028
0.000956400578670411
0.00104256755942983
0.00112144419928879
0.0010461953913175
0.000851424263198668
0.000614310168536566
0.000492295995756881
0.000724467831875788
0.00068710286204491
0.000519777488986501
0.000262875850708094
0.000124764698506258
7.01234183106562e-05
3.93989199219263e-05
2.3119858900079e-05
2.12040996396825e-05
2.01880148606412e-05
2.07183136886179e-05
2.33544938656551e-05
2.85896852111937e-05
3.68340372869815e-05
4.99479750267957e-05
6.98969577180736e-05
9.84556332967043e-05
0.000136179085529165
0.000182912653426889
0.000236795303849971
0.000294217601082409
0.00035124509318921
0.000404931891492626
0.000451101050395599
0.000486422347918183
0.000514267299272567
0.000548402171993832
0.000613120105196711
0.000735733664079482
0.000872371054174432
0.000987494842169904
0.00108926928907544
0.00118092291905277
0.00126445685816651
0.00134152567924598
0.00141323980203499
0.00148042913133588
0.00154369630927652
0.00160348933358884
0.00166014707843198
0.0017139387129618
0.00176510385698249
0.00181392594730983
0.00186058341303565
0.00190507217969985
0.00194731731464738
0.00198716713232127
0.00202449842946154
0.00205938058006958
0.00209186315665744
0.0021219819700923
0.00214977583434297
0.00217528360430782
0.00219854596681018
0.00221960656912879
0.00223851250991214
0.00225531454275461
0.00227006685976465
0.00228282675231146
0.00229365415561639
0.00230261118912679
0.00230976172265493
0.00231517079085399
0.00231890387338221
0.00232102532521666
0.00232159633942325
0.00232067147516002
0.00231829686445704
0.00231451040692231
0.00230934917101017
0.00230285881730432
0.00229509364355975
0.00228611084950144
0.00227596419112691
0.00226469315059259
0.00225231917292761
0.0022388385976318
0.00222423346287821
0.00220848284189043
0.00219155527161109
0.00217340720741932
0.00215395509666401
0.00213307109865786
0.00211053540685981
0.00208605640286962
0.00205917565253715
0.00202933856411514
0.00199562357971031
0.00195702380203997
0.00191168048918443
0.00185739895167112
0.00178687874855855
0.00173162039336342
0.00174039575827719
0.00176815461656599
0.00179803778343111
0.00181843280487696
0.00183027070042612
0.00183622519800422
0.00184130407709705
0.00184182994691317
0.00183506896658889
0.00181787873127163
0.00178823085796336
0.00173935523044997
0.00167539423800067
0.00160424876466661
0.00153161787936454
0.00146245503148784
0.00140551171011117
0.00137697813055253
0.00137703011031432
0.00141052004562231
0.00148806032478035
0.00160727111939047
0.00171792043995954
0.00162179404027052
0.00134890159045114
0.00100289743135158
0.000799494836901415
0.00105656358798596
0.000987365714855097
0.000768358109598497
0.00038381330804216
0.000175026939187686
0.00012151890673916
8.8890489437958e-05
5.27234798009314e-05
4.7394281099707e-05
4.47075033011952e-05
4.48139669043444e-05
4.89759351875765e-05
5.78977010955022e-05
7.20803442564782e-05
9.44731441124291e-05
0.000127750169596673
0.000173584274847753
0.000231302868280528
0.000299329291414956
0.00037412685950062
0.000450632559000432
0.000524242976665902
0.000592043531684285
0.000650139877808024
0.000696728365303176
0.000738395254009943
0.000792829454891993
0.000888067553182594
0.00105155187747464
0.00122760856343317
0.00137586744388677
0.00150707302815667
0.00162524590322275
0.00173293300011576
0.00183223069900039
0.00192455246070309
0.00201096640492242
0.00209225260732619
0.00216899734492415
0.00224164842661976
0.00231056715342473
0.00237607405112331
0.00243849242679164
0.00249794722549177
0.00255444174421536
0.00260790803963778
0.00265822815046329
0.00270534222340132
0.00274933714693008
0.00279027688973386
0.00282821459118382
0.00286320487694912
0.00289530199102306
0.00292456190397611
0.0029510437616948
0.00297481056105861
0.0029959294294757
0.0030144713943201
0.00303051097849693
0.0030441256507835
0.00305539526049748
0.00306440148945225
0.00307122712865692
0.00307595517008131
0.00307866693594573
0.00307943959933542
0.00307834207447152
0.00307543273707307
0.00307075955950529
0.00306436895161917
0.00305631735810162
0.00304667168076966
0.00303550245214402
0.00302287586051901
0.00300884076537603
0.00299342355495317
0.00297661952480153
0.00295840555413746
0.00293875377181057
0.00291762346315188
0.00289495766455769
0.00287065108068262
0.00284454104869915
0.00281635368865385
0.00278571994786051
0.00275207069422396
0.00271470285510474
0.0026724777918475
0.00262411242081808
0.00256729055750256
0.0024992024041779
0.0024102647334671
0.00233916799679514
0.00234745938617403
0.00238417661121777
0.00242495275413881
0.00245557446374297
0.00247604169994715
0.00248965340725498
0.00250187231744572
0.00250803306117641
0.00250413907983458
0.00248628481895341
0.00245178384862023
0.0023927409721425
0.00231410553812002
0.00222591233248797
0.00213559782912511
0.00204951256636975
0.00197899786141998
0.00194443904276482
0.00194689461717074
0.00199183126368379
0.00209135958524131
0.00224289881494744
0.00238612502634838
0.00227508386439161
0.00192654563594916
0.00147330612397715
0.00118337403363301
0.00145059924945708
0.00134175280468606
0.00107646982339197
0.000536520824552317
0.000235625131285701
0.000154448953552506
0.000154643615242433
0.000102273586515695
9.02343416850078e-05
8.44065462848361e-05
8.28194475651073e-05
8.79890355036536e-05
0.000100951312359696
0.000122283921449608
0.000155977970356411
0.000204955457917809
0.000269997767067104
0.000348660657920511
0.000437870293187546
0.000532699872503404
0.000627148333290587
0.000716475133898893
0.000798240320898361
0.000869397789149949
0.000930011816824428
0.000989450871534094
0.00106822792259258
0.00119664736808256
0.0014006942031461
0.00161516567365881
0.00179649605734242
0.00195743249199089
0.00210261740767378
0.0022350530578105
0.00235721629719271
0.00247079169890551
0.00257706725720462
0.00267699074288678
0.00277128188368721
0.00286049493174565
0.00294508040688985
0.00302543036935806
0.00310186585267171
0.00317450247075573
0.00324335815131834
0.00330838411032687
0.00336950508062575
0.00342671575098904
0.00348011978924261
0.00352979793421725
0.00357582197407765
0.00361826358002077
0.00365719352360905
0.00369268407852737
0.00372481079272581
0.00375365335936867
0.00377929597864927
0.00380182712206953
0.0038213390674041
0.00383792725755019
0.00385168962756357
0.00386272593551881
0.00387113689492827
0.00387702307413905
0.00388048274979456
0.00388160903591104
0.00388048523410274
0.00387718210873875
0.00387175790755386
0.00386426842575581
0.00385478066221282
0.00384337373065603
0.00383013104358761
0.0038151307622396
0.00379843082793875
0.0037800624012227
0.00376001974921748
0.00373827445575749
0.0037147912814228
0.00368951983038635
0.00366238907388949
0.00363327168200619
0.00360196970403473
0.0035681556511244
0.00353138268312174
0.00349097256284713
0.00344607335086108
0.00339533574555302
0.0033371957179305
0.00326889287069175
0.00318696897444009
0.00307976650045189
0.00299245021961718
0.00299891069474521
0.00304473048662622
0.00309748051804766
0.00314001755138745
0.0031710832600007
0.00319440335293013
0.00321564636539687
0.00322914175030023
0.00322951786357835
0.00321210903816938
0.00317358912342484
0.00310518460110672
0.00301255394229765
0.00290776768271314
0.00280001690153142
0.00269707091449546
0.00261279878822002
0.00257143062381476
0.0025751897202544
0.00263014188396656
0.00274985885400828
0.00293230221287444
0.00310904573280422
0.00298894808450591
0.00257000097107111
0.00201276377025497
0.00163457234544521
0.00190079235632547
0.00174686389840591
0.00143993169034897
0.000734139177544075
0.000310479140909454
0.000189727110062693
0.000212998339694458
0.000170639866136925
0.000150867276547693
0.000140410691834768
0.000135646698185845
0.00014094466327318
0.0001579972895921
0.000187397003730897
0.0002338122224879
0.000299781175202542
0.000384601961433266
0.000483963317281848
0.000593495276504052
0.000707242190891215
0.000818698609741262
0.000923371881344971
0.0010196010045691
0.0011054957733344
0.00118296043085708
0.00126354655343959
0.00136965822425801
0.00153281291704573
0.00177667482722636
0.00202851678140595
0.00224272441496324
0.00243351273792903
0.00260600851825381
0.00276359026609183
0.00290905833327563
0.00304433959472792
0.00317092431742542
0.00328991877397474
0.00340217109750534
0.00350833841371724
0.0036089537142779
0.00370447105104201
0.00379519944235633
0.00388127032952661
0.00396272357156183
0.00403953916998679
0.00411168818814842
0.00417921249972433
0.00424223335896112
0.0043008505988382
0.00435515603211378
0.00440523969349361
0.00445119004600898
0.00449309666793479
0.00453105234936799
0.0045651541693582
0.00459550394960963
0.0046222080259545
0.00464537673184531
0.0046651236728275
0.00468156494858774
0.00469481836088601
0.00470500240041947
0.00471223495771345
0.00471663093350838
0.00471829904051867
0.00471733672207317
0.00471382703922789
0.00470783851709449
0.00469943619128573
0.00468869717230914
0.00467571214030603
0.00466057665484642
0.00464338012859688
0.00462418907423773
0.00460303914008935
0.00457992357313342
0.00455480861481892
0.00452765140017676
0.00449839161757024
0.00446694386912337
0.00443315894245694
0.00439680396408599
0.00435749938595762
0.00431472160650109
0.00426768800705438
0.00421540017934037
0.00415630830596633
0.00408856959762863
0.00400900064409776
0.00391348291837804
0.00378857810732668
0.00368506307404887
0.00368840874852967
0.00374308258700682
0.00380854815830206
0.00386438025950308
0.00390775540771879
0.00394256914780078
0.00397444414298867
0.00399668926571978
0.00400250107380524
0.00398646895671159
0.00394467171356986
0.00386769756429948
0.00376181270063891
0.00364095353664063
0.00351600636240806
0.00339612583091823
0.00329753739356436
0.00324786194798021
0.00325079330777444
0.00331321463584452
0.00345056880299797
0.00366248019529996
0.00387453034962483
0.00375092861474206
0.00326828608114198
0.0026117730534812
0.00214508708512636
0.00240193230328586
0.00219945813759606
0.00185172890580651
0.000988190683630106
0.000404967867707333
0.000233771111677887
0.000256983748138152
0.000245431306207448
0.000227300660519307
0.000211795599238266
0.000202803136085816
0.000207423303251381
0.000228507140336018
0.00026658737071929
0.000326496253172214
0.000409849984883468
0.000514188134168948
0.000633484547464799
0.000762317387599487
0.000894016525691239
0.0010219087998267
0.00114202039062365
0.00125365309042368
0.0013561763614719
0.00145311386792688
0.00155761580116042
0.00169325007546453
0.00189199047267747
0.00217471297645524
0.00246287423853435
0.00270964445647955
0.00293024079142769
0.00313016333477104
0.00331309853322706
0.00348211887235514
0.00363936796342712
0.00378652206398727
0.00392483755344558
0.00405528600134148
0.00417862370338046
0.00429546067100663
0.00440629975893621
0.00451145042050485
0.0046110722559659
0.00470523414956259
0.00479395210403236
0.00487724441487407
0.00495519480373275
0.00502794382491964
0.00509561262773913
0.00515831448495792
0.00521615915916013
0.00526925396803771
0.00531770675725945
0.00536162832097308
0.00540113369640567
0.00543634272180299
0.00546737983045461
0.00549437349593094
0.00551745543344682
0.005536759724161
0.0055524219035864
0.00556457780715354
0.00557336210347239
0.00557890570001938
0.00558133228964743
0.00558075295098154
0.0055772627156712
0.00557094018190191
0.00556185929399523
0.00555010663911429
0.00553578359883935
0.00551899690789122
0.00549984628356951
0.00547840611113047
0.00545471613575815
0.00542876857269101
0.00540052435199287
0.00536993288770933
0.0053369239200413
0.00530139771459583
0.00526318376855828
0.00522201541996102
0.00517746329140345
0.00512893053197655
0.00507553600135693
0.00501614082686312
0.00494900787861693
0.00487202429220239
0.00478161162894149
0.00467300132074166
0.00453130882763587
0.00441199429555016
0.00441109247025236
0.00447405322153129
0.00455263435557066
0.0046228224433187
0.00467994047290027
0.00472775627759115
0.00477159220566091
0.00480372013220271
0.00481589553469561
0.00480199141001335
0.00475755578165302
0.00467276361965902
0.00455438579766745
0.00441800053972958
0.00427605839666297
0.00413899695547694
0.00402511047896334
0.00396489531685013
0.00396391647300118
0.00403038466052715
0.00418252390600437
0.00442309534745879
0.00467363498784669
0.00455155472104281
0.00401247821198027
0.00326274835447029
0.00270851919580497
0.00294953718977163
0.0026966186571593
0.00230486399840384
0.0013082058421883
0.000526478274428076
0.000287568738638486
0.000296245230935744
0.000306996571529494
0.000313925879206236
0.000296385559915459
0.000283014160624956
0.000286500372290788
0.000311525963132477
0.000358592131423615
0.000432226408983884
0.000532777462563258
0.000655973221756168
0.000794294961067811
0.000941485327859717
0.00109042072039942
0.00123451950675272
0.00137050742131064
0.00149873147146951
0.00161978517797446
0.00173851429714687
0.00186916031879203
0.00203589526075768
0.0022705841110597
0.00259107950929582
0.00291448105192081
0.00319336684131775
0.00344355979861604
0.00367084189400936
0.00387914816223517
0.00407177729538281
0.0042510668223469
0.0044188640574458
0.00457656784438589
0.00472526843033963
0.0048658177552951
0.00499889897723434
0.00512505303865521
0.00524460950687347
0.00535776255022773
0.00546461665756687
0.0055652291160119
0.00565966516462414
0.00574804692990184
0.00583053647076142
0.00590727836984409
0.00597840883702121
0.0060440587366933
0.00610435537708136
0.00615942577436682
0.00620939939571724
0.0062544096828979
0.00629459472904117
0.00633009711321017
0.00636106332424272
0.00638764290417859
0.00640998748653582
0.00642824977378978
0.00644258225135168
0.00645313556011736
0.00646005573948649
0.00646348059384938
0.00646353408821448
0.0064603226713617
0.00645393460449672
0.00644445222958397
0.00643197080565931
0.00641660136600749
0.00639846064977859
0.00637765754262526
0.006354273441241
0.00632835169862318
0.00629988345849364
0.00626882443905424
0.00623511639470842
0.00619867929098938
0.00615939941599139
0.0061170859958532
0.0060714401974418
0.00602198646611138
0.00596805935367083
0.00590868677861055
0.0058425984653806
0.00576788586552577
0.00568218066244212
0.00558154322050928
0.0054605862113158
0.00530332397466238
0.00516895835447781
0.00516288558082253
0.00523332429894281
0.00532508940634811
0.0054103693781299
0.00548236914470028
0.00554440658209026
0.00560124825207044
0.00564411088334192
0.00566333868226332
0.00565212948327033
0.00560557783981213
0.00551364971409905
0.00538351614883656
0.00523213189616221
0.00507331239170974
0.00491859189973601
0.0047879243486093
0.00471416013324058
0.00470532660637408
0.00477182777761397