/*--------------------------------*- C++ -*----------------------------------*\
  =========                 |
  \\      /  F ield         | OpenFOAM: The Open Source CFD Toolbox
   \\    /   O peration     | Website:  https://openfoam.org
    \\  /    A nd           | Version:  7
     \\/     M anipulation  |
\*---------------------------------------------------------------------------*/
FoamFile
{
    version     2.0;
    format      ascii;
    class       volVectorField;
    location    "10000";
    object      U;
}
// * * * * * * * * * * * * * * * * * * * * * * * * * * * * * * * * * * * * * //

dimensions      [0 1 -1 0 0 0 0];

internalField   nonuniform List<vector> 
15600
(
(0.0584407396134477 -0.000170555316203795 -1.28049531939933e-21)
(0.0697609361096497 -0.00190448103564199 -2.63901567208069e-18)
(0.040078734647422 -0.00531048829263463 0)
(-0.0126004638462972 0.00196424749976417 -2.18819760951262e-17)
(-0.0285051275844605 0.0120609061497049 -2.57331062959245e-21)
(-0.0191161705842351 0.0112281441052916 -7.54435398223952e-21)
(-0.0111980448239768 0.00782229819442355 -4.23804020139e-17)
(-0.00808527929644681 0.00619819279653529 4.33381149454781e-17)
(-0.00588131602288312 0.0047795594305166 -1.26299972285845e-14)
(-0.00461057599316186 0.00382251453618032 -1.32204901690865e-14)
(-0.00362756903085605 0.00301147589725393 1.21700355660077e-20)
(-0.00321762288907756 0.00264865831803261 -2.56635732780421e-20)
(-0.00305201832435048 0.00250374939518438 2.69651131814127e-20)
(-0.00322806426646101 0.00263719332268851 -5.76817884022953e-17)
(-0.00379684474577968 0.00307196083542296 -6.01126429854338e-17)
(-0.00475678865113969 0.00379574791777657 -6.07900427024538e-20)
(-0.00596839557621778 0.0046782976970467 -6.4253896424629e-17)
(-0.00726053873331259 0.00552332302696025 1.33417175065425e-16)
(-0.00857176491076581 0.00622623692741886 -6.92418943228952e-17)
(-0.00974268495874693 0.00663436872322181 -7.25989244782433e-17)
(-0.0105747147661488 0.00660438275694027 7.58734692509854e-17)
(-0.0110623509047548 0.00615350330501848 -7.93947136034759e-17)
(-0.0113280390063633 0.0054413644368927 -8.27323917934081e-23)
(-0.0112300908563134 0.00450348374668868 8.59100324020109e-17)
(-0.0106750385354567 0.00339995152937627 0)
(-0.00982449692908839 0.00226392114285586 0)
(-0.00804057154096872 0.00108799171264364 -6.697338893111e-15)
(-0.0091569036984802 0.000395826272751769 -6.79412436963437e-15)
(-0.0160466039925326 8.75185402787271e-05 2.1362927764559e-23)
(-0.0230876305249562 9.32493882367404e-05 6.26351339063165e-31)
(-0.0285731460203536 0.000108990613755815 0)
(-0.0333641167966478 0.000118998031371059 -7.22329801078043e-15)
(-0.0373889019472062 0.000128518580337792 -7.26029491619196e-15)
(-0.0408623402216298 0.000135696879288363 0)
(-0.0438595687004534 0.00014193698828777 0)
(-0.0464739760674968 0.000146753328784542 0)
(-0.0487572041277802 0.000150472123397069 0)
(-0.0507543813659349 0.000152994265942331 -8.14347883551807e-20)
(-0.052494785400583 0.000154414334704213 6.72644227772345e-15)
(-0.0540017367926644 0.000154741614622377 6.78928153965214e-15)
(-0.0552918608472833 0.000154024472727775 -8.0939151227939e-20)
(-0.0563781611422198 0.000152295930139876 -8.11921066083682e-20)
(-0.0572706597625012 0.000149597067913763 8.10032911351957e-20)
(-0.0579778077657487 0.000145977768506221 -8.13732551628656e-20)
(-0.0585072532502933 0.000141493106711407 8.12527443144342e-20)
(-0.0588658488173575 0.000136174489385952 0)
(-0.0590584878959788 0.000130044814775291 -7.05975214552773e-15)
(-0.0590890781852133 0.000123197370298503 -7.12809840498134e-15)
(-0.0589655410254527 0.000115710863044052 -8.23584378995679e-20)
(-0.0586944800554965 0.000107687847900614 4.12592405910426e-20)
(-0.0582832956628873 9.92221989841939e-05 -4.15910132919033e-20)
(-0.0577397123075496 9.03891214573324e-05 8.34064904581931e-20)
(-0.057071611088594 8.12606633691711e-05 -6.96915051590796e-15)
(-0.0562870582150941 7.19078838403169e-05 -7.03013333455365e-15)
(-0.0553942930132574 6.23989118066059e-05 -2.11416210456647e-20)
(-0.0544016855036998 5.2798919166287e-05 0)
(-0.053317690159422 4.31686905362041e-05 1.24767838414486e-30)
(-0.0521507814817083 3.35643991300603e-05 -1.08051075068362e-20)
(-0.0509093948112447 2.40370053456948e-05 1.62713731466429e-20)
(-0.0496018628238297 1.46320298808596e-05 -5.45298819675803e-21)
(-0.0482363608687361 5.38974712368263e-06 0)
(-0.0468208504157899 -3.65538988685365e-06 1.10956881895546e-20)
(-0.0453630303503219 -1.24736531326388e-05 -1.11329850300017e-20)
(-0.0438702798136907 -2.10418454451884e-05 1.30750060760882e-30)
(-0.0423496125927308 -2.93407121546702e-05 0)
(-0.0408076266785487 -3.7358846717999e-05 -2.28209347681118e-20)
(-0.0392504890010081 -4.50875783886298e-05 2.29069990653586e-20)
(-0.0376839888838688 -5.25240315228291e-05 0)
(-0.0361136198142775 -5.9665489293974e-05 0)
(-0.0345448124867618 -6.65049568410012e-05 0)
(-0.0329829635330366 -7.30384023545256e-05 0)
(-0.0314331982541883 -7.92698890821612e-05 0)
(-0.0299002614329056 -8.52044090362842e-05 7.99818956440783e-15)
(-0.0283883452194101 -9.08593025685599e-05 1.60555517992151e-14)
(-0.0269011103045835 -9.62458722297595e-05 8.05258117009594e-15)
(-0.0254418180300833 -0.000101384314114791 -1.95315224603028e-19)
(-0.0240134317392667 -0.000106288469736597 9.81626752494092e-20)
(-0.02261917345091 -0.00011096198815149 -9.90435900756833e-20)
(-0.0212622833836089 -0.00011542606666678 9.94109042183392e-20)
(-0.019946241391343 -0.000119680140590465 8.38220813129168e-15)
(-0.0186743849571563 -0.000123764861264975 8.34917314728985e-15)
(-0.017450536465309 -0.000127669105984284 -1.01208613625505e-19)
(-0.0162784487245932 -0.000131464148236412 1.0201311173482e-19)
(-0.0151636829415163 -0.000135102720770029 -2.04915609942566e-19)
(-0.0141123156336497 -0.00013871175535686 1.02891612904551e-19)
(-0.0131347114085154 -0.000142180830382571 -2.07274489499003e-19)
(-0.0122429259823053 -0.000145736308172394 4.16146692381573e-19)
(-0.0114558698109897 -0.000149216745026512 -2.08835387683278e-19)
(-0.0108008575556716 -0.000152867610876816 -2.10161123799094e-19)
(-0.0103039268661046 -0.000156902647390846 4.21602868628143e-19)
(-0.0100314284020579 -0.000161530513397725 0)
(-0.00990115500197906 -0.000167291750863838 -2.59012064760337e-23)
(-0.0103652019807759 -0.000481242119208758 0)
(-0.0104375758642256 -0.00131550369379129 2.12825941565509e-19)
(-0.0100224017167023 -0.00201962122754714 -5.42487735853164e-17)
(-0.00932112788626787 -0.00255237114393133 -4.18760449462448e-22)
(-0.00801881283051064 -0.00269993081830535 -1.02393931454299e-16)
(-0.00627836815698136 -0.00241921572384704 -9.9758155573234e-17)
(-0.00397708588624777 -0.00155756420995197 9.59989228842187e-17)
(-0.000927790914272749 6.25975246839374e-05 -9.21628860759548e-17)
(0.00289527563736655 0.00250384837200697 8.79373154273092e-17)
(0.00745595983137182 0.00569253269998138 8.36067683072762e-17)
(0.0126351656795639 0.00947748152272641 0)
(0.0183526738509522 0.0136782742631191 0)
(0.0239989926804096 0.0178036818702702 -7.30221317979031e-17)
(0.0291544329228631 0.0216720592154518 -6.99545991544693e-17)
(0.0341914096176621 0.0256162509942759 -6.67971391758979e-17)
(0.0393813662686088 0.0298725045378216 -6.35080220581411e-17)
(0.0451791574243085 0.0347974204823938 -6.006966478741e-17)
(0.052282785157456 0.040944703300437 5.63477313563357e-17)
(0.0628374294160092 0.0494911906693096 5.24366648239022e-17)
(0.0781012924276323 0.0601221356688882 -4.88269208759914e-17)
(0.0980482572881111 0.0715542162335308 4.54324000138502e-17)
(0.126615669966227 0.0838996467449279 4.21699399860304e-17)
(0.164234315468498 0.0926941274488366 -3.89679455444354e-17)
(0.207957698320069 0.0883111740084419 0)
(0.204926107888632 0.0528268679087358 1.71152786385185e-17)
(0.14407030114179 0.0169368696805948 0)
(0.0749631642385419 0.00177264110943565 -2.35935245548881e-18)
(0.0480211422396775 -0.000216965348357361 0)
(0.205036354951346 -0.000808471785371596 0)
(0.219958403288197 -0.00487794179548719 -3.160113848322e-22)
(0.152781071558765 -0.0148436564810705 -6.42921255541783e-21)
(0.0100952315900713 0.000343973344644386 2.1049751325745e-14)
(-0.0632335232510805 0.0305241259156837 2.10775980197337e-14)
(-0.0502557931304922 0.0307129520499274 -6.2139947646207e-17)
(-0.0306959498787895 0.0220077231110638 5.91813975629633e-24)
(-0.0223218817994165 0.0176412510196693 -6.53714654915647e-17)
(-0.0166409087500101 0.0138263543519307 1.92386145882793e-14)
(-0.0133216288799181 0.011197269890235 2.00319189857171e-14)
(-0.0108709826399265 0.00900303281174352 -3.70534343731319e-20)
(-0.00989702237531868 0.00804333949942918 3.91704059109948e-20)
(-0.00967243948214229 0.00774269662176202 -4.10450540678745e-20)
(-0.0104066287880687 0.00825931214225344 -8.75613031996872e-17)
(-0.0122264371679697 0.00964595766536688 1.80988038884975e-16)
(-0.0150643847464253 0.011830461087791 -9.06642544969818e-20)
(-0.0185258073614626 0.0144215651788086 9.5144765535664e-17)
(-0.0221763365879412 0.0168661827817912 -9.76840283313207e-17)
(-0.0258320976378134 0.0188487769239877 1.95261291706309e-19)
(-0.0291291685781127 0.0199562521266038 -2.01146949791182e-19)
(-0.0317068220698869 0.0198544224113698 -1.06130913812915e-16)
(-0.0336132480034888 0.018611359689961 1.09942747653061e-16)
(-0.0350700859250326 0.0166083085375754 1.13685753668119e-16)
(-0.035803248958156 0.0139492363285247 -2.27960625910086e-19)
(-0.0356676500937085 0.01079755709493 5.96087794314597e-17)
(-0.0349252425612309 0.00745693821209983 -6.08347095457315e-17)
(-0.033873399355448 0.00427100073503965 8.96666767258757e-15)
(-0.0403509815321024 0.00234987327405788 8.39697126620341e-15)
(-0.0582311964144426 0.00140530806027595 -5.06831040180528e-23)
(-0.0754759253678538 0.00120537119366847 -7.14467427413954e-31)
(-0.0887434531239979 0.00100754390667317 0)
(-0.0998824051724962 0.000848635330496232 7.90480339559026e-15)
(-0.109064991558175 0.000721973877457562 7.56176710790327e-15)
(-0.116818917514863 0.000619363661076726 3.43191128842328e-19)
(-0.123382251471217 0.000536416069905196 -1.67792034651079e-19)
(-0.128980882713642 0.000466815673689486 -1.6500527784705e-19)
(-0.133750556324935 0.000407341995472061 1.62070460357309e-19)
(-0.137800721454787 0.00035497084211501 1.16438459699836e-30)
(-0.14120626389308 0.000307918146419218 -6.62292812869466e-15)
(-0.144026015785109 0.000264785133449183 -6.48774234759355e-15)
(-0.146304038853286 0.000224648651198654 0)
(-0.14807576388132 0.000186847465814992 7.72902866647468e-20)
(-0.149370061627575 0.000150965811720062 2.42858734486859e-22)
(-0.150212115574815 0.00011679854234893 -7.6358332306797e-20)
(-0.150625507664286 8.42487250964518e-05 -7.6417703002494e-20)
(-0.150633645557326 5.29796162510161e-05 1.52355817827755e-19)
(-0.15025494466039 2.24315421219579e-05 6.60633440690769e-15)
(-0.149500230779997 -7.11887926845177e-06 6.55868805675336e-15)
(-0.148391294729654 -3.51481460651946e-05 7.59076860938367e-20)
(-0.14695063739192 -6.168347661726e-05 0)
(-0.145198884259199 -8.67046538147763e-05 -3.82529805652827e-20)
(-0.143156816866618 -0.000110178784357504 3.82443938290015e-20)
(-0.140845079458366 -0.000132086403257145 6.42354054564769e-15)
(-0.138284237801138 -0.000152405369142791 6.43554797148061e-15)
(-0.135494757898822 -0.000171119992607434 -1.9512081383895e-20)
(-0.132496939941773 -0.000188221446586796 -7.51876807793359e-23)
(-0.12931084438619 -0.000203711531332362 -7.53760363883916e-23)
(-0.125956196268785 -0.000217602336487781 1.99042771385814e-20)
(-0.122452298927295 -0.000229916716123603 -5.0416733328722e-21)
(-0.118817945459238 -0.000240687664064836 5.0732412681548e-21)
(-0.115071342857736 -0.000249957035794516 -5.14606964344641e-21)
(-0.111230034960763 -0.000257776553580794 5.18474989014809e-21)
(-0.10731083372446 -0.000264204982207591 2.10571258333296e-20)
(-0.103329742453039 -0.000269312661892012 -2.12388209362137e-20)
(-0.0993018989637197 -0.000273173447264927 0)
(-0.0952415317511063 -0.000275871901794082 0)
(-0.0911620002942527 -0.000277481685589027 0)
(-0.0870759513044705 -0.000278068077515681 0)
(-0.0829955467512052 -0.000277666537298659 0)
(-0.0789328086422726 -0.000276285563425177 0)
(-0.0748995369403603 -0.000273955093616867 0)
(-0.0709068886484271 -0.000270743498167827 9.51460423861293e-20)
(-0.0669651848338952 -0.000266729693246427 -8.00539299482328e-15)
(-0.0630836783164705 -0.000262026378785846 -1.63069646014607e-14)
(-0.0592706988046853 -0.000256706502747069 -8.30925248170989e-15)
(-0.0555339489898077 -0.000250841817003268 -2.01887952159901e-19)
(-0.0518808799197124 -0.000244439100263447 -2.68282150951955e-22)
(-0.0483195629434057 -0.000237454746485743 1.03986782199703e-19)
(-0.0448582748432877 -0.000229902174951572 1.05887897422623e-19)
(-0.041505888417649 -0.000221721124949156 -8.90155785439482e-15)
(-0.0382713503558765 -0.000212963410612402 -9.13571055588046e-15)
(-0.0351649415765244 -0.000203471516632155 1.10723035384066e-19)
(-0.0321976548756778 -0.000193268457452132 0)
(-0.0293849005886809 -0.000181878829557267 2.29051524047268e-19)
(-0.0267445736957901 -0.000169244479969489 -2.32202186942757e-19)
(-0.0243047735201996 -0.00015431442978358 -2.3643103043962e-19)
(-0.0220990508508588 -0.000136940966741102 2.39761253045773e-19)
(-0.0201790195578656 -0.000115150752194599 0)
(-0.0186148889497049 -8.84293955634397e-05 0)
(-0.0174871187406595 -5.49292961752166e-05 2.52474051226963e-19)
(-0.0169538266252218 -1.39181262915175e-05 -4.81583469966165e-22)
(-0.0170046830493392 3.00425523797637e-05 2.60512507462406e-19)
(-0.0183037494691542 -0.00059531475546566 0)
(-0.0182139829101064 -0.00238150947569677 7.67362331405648e-23)
(-0.0167499079139352 -0.00374414451173391 0)
(-0.0144157919247749 -0.00461674886657923 6.49192823206053e-17)
(-0.010728322810393 -0.00448752976526158 -1.27191175163957e-16)
(-0.00600188656634666 -0.00325006150328471 -2.43130923921404e-19)
(-1.80998470187492e-05 -0.00055034197747567 2.34450117316322e-19)
(0.00759965410764929 0.00401025924206931 2.21893245438897e-19)
(0.0168332490096443 0.0105489534445287 -1.06640577189094e-16)
(0.0276220454178227 0.0188813082935589 -1.94795904388211e-19)
(0.0397351012245945 0.028660074002605 -9.43998141665346e-17)
(0.0530432985364162 0.0394679197925304 0)
(0.0664738613304205 0.0502758104584462 0)
(0.079203158788776 0.0606849456700827 8.30306558602026e-17)
(0.091695251088861 0.0713584486066061 7.97893145353666e-17)
(0.104484225291709 0.0828663977917632 7.64034270870789e-17)
(0.118474033926491 0.096042788810153 2.6944202421002e-20)
(0.135042421593714 0.112151403987744 -6.82901934157121e-17)
(0.158277276542317 0.133650697033712 -1.26434426127784e-16)
(0.191374380765778 0.159800410950959 0)
(0.235282961050845 0.187519338951858 0)
(0.296624113116372 0.215831351284225 -4.71167131110882e-17)
(0.377080542775254 0.234536544531529 -4.15293488861979e-17)
(0.474589546502631 0.224154044969018 3.75381730336321e-17)
(0.509968321998334 0.148850350180675 -1.74128123791722e-17)
(0.43250603649286 0.0604334464770325 0)
(0.292122383661504 0.0115850996808492 0)
(0.209109884989878 0.000336141304139784 0)
(0.364116365654093 -0.000481514929450178 0)
(0.366757483324099 -0.00669718088654244 2.28771867126453e-18)
(0.284755587873855 -0.0235732433630822 0)
(0.0782137845998498 -0.0108306537672473 -1.69257772604325e-14)
(-0.0756254725003517 0.0391646537880666 -2.02519160559531e-14)
(-0.075768046654173 0.0456139589769219 6.1829635727177e-17)
(-0.0483474544653726 0.0338047151968815 0)
(-0.0354115185156039 0.0274553420993329 8.06018235646268e-21)
(-0.0268843420877252 0.0219844597638428 -6.92247612198908e-17)
(-0.0218485240504121 0.0181158901346431 7.3054587053098e-17)
(-0.0182526740774432 0.014964572890236 2.5410747666344e-23)
(-0.0168925605891438 0.013662385546599 -4.0035235358352e-20)
(-0.016805831829914 0.0134567260022554 0)
(-0.0182547001142663 0.014571189782476 8.84700952616361e-17)
(-0.021412443633902 0.0170559128543506 1.56028871764784e-21)
(-0.0260955445948049 0.0207212725389232 -8.9764681800515e-20)
(-0.0316682975753998 0.0249128808738993 9.0660375152623e-20)
(-0.037484195485661 0.0287745515179546 0)
(-0.0432421261659422 0.0317968758523525 0)
(-0.0484700026290215 0.033401713662201 0)
(-0.0528109269008553 0.0332019375720739 0)
(-0.0564207040469177 0.0313210229188158 -9.77243417991067e-17)
(-0.0595708403634813 0.0282435619484835 -9.78740902174481e-17)
(-0.0619982227811244 0.0241328131929143 1.92263516518914e-19)
(-0.0636395674779867 0.0192140620476464 -1.92996390229963e-19)
(-0.0650812731357239 0.0139469527773922 9.77689272096241e-17)
(-0.0681230000769678 0.00898391963725874 4.74951479155112e-17)
(-0.080690915880023 0.00544261201831509 1.67146482064481e-19)
(-0.104560933110859 0.00365810516168843 3.62795480103801e-23)
(-0.125895946863185 0.00308929667114353 0)
(-0.141671368676018 0.00250212278713982 0)
(-0.154303595322691 0.00206386785797101 0)
(-0.16434853682461 0.00172124425233094 0)
(-0.172521220505278 0.00144959001534892 0)
(-0.17917882887927 0.00122965900421062 0)
(-0.184617605317508 0.00104545500825615 0)
(-0.189023299308471 0.000887358856015651 0)
(-0.192539858734198 0.000747937779193655 0)
(-0.195268926329499 0.000622473101649747 4.9375562586923e-20)
(-0.197290006928204 0.000507528827916162 -4.83481251749047e-20)
(-0.198664107125964 0.000400772030947574 4.76982329487864e-20)
(-0.199440703919685 0.000300567484100117 -4.68767718126758e-20)
(-0.199660567730889 0.000205831304980387 0)
(-0.199358670330501 0.000115934821805311 0)
(-0.198565580648216 3.05693250968188e-05 4.54556487244473e-20)
(-0.197311207087995 -5.0766061596331e-05 1.57061189165187e-22)
(-0.195627067404253 -0.000128718493382574 -4.44338967967129e-20)
(-0.193540571758084 -0.000202932169181347 0)
(-0.191078473262853 -0.000272832503417373 0)
(-0.188266713263733 -0.000338510675962855 0)
(-0.18513047732942 -0.000400026275818418 0)
(-0.181694303179568 -0.000457376606155259 0)
(-0.177982160255385 -0.000510573179837967 2.17141793078247e-20)
(-0.174017527650499 -0.000559621706083705 -2.16299581188056e-20)
(-0.169823416588655 -0.000604538515876186 -1.08681636564268e-20)
(-0.1654223484232 -0.000645352584703675 -4.16518634566654e-23)
(-0.160836318640448 -0.000682111928104053 -4.15564553935723e-23)
(-0.15608674141931 -0.000714883205955513 1.09277486991671e-20)
(-0.151194398397418 -0.000743752292019608 0)
(-0.146179383141549 -0.000768823152461438 0)
(-0.141061053603997 -0.000790215858033827 0)
(-0.135857979343096 -0.000808068111338396 0)
(-0.130587896417211 -0.00082253092330743 1.13365386134732e-20)
(-0.125267651895227 -0.000833774543228368 3.99041323219585e-23)
(-0.119913178794091 -0.000841974007136296 -1.15068958467264e-20)
(-0.114539483078959 -0.000847315004508696 0)
(-0.109160736536405 -0.000849954402129607 -2.35801538806871e-20)
(-0.103790458623796 -0.000850019199314129 2.37715972288736e-20)
(-0.0984417676217521 -0.00084757513234618 -2.41336893025266e-20)
(-0.0931276720251855 -0.000842650231130782 -7.5548159399439e-23)
(-0.0878609052464016 -0.000835327868592347 -2.48286529265541e-20)
(-0.082653505583357 -0.000825767616768091 5.00294956521993e-20)
(-0.0775166720988096 -0.000814152704272711 0)
(-0.0724605751858053 -0.000800710647538578 0)
(-0.0674946094774844 -0.000785584215918772 5.23846117922296e-20)
(-0.0626277195940419 -0.000768881954754959 1.42510622762652e-22)
(-0.0578688748761363 -0.000750569899518907 -5.38833097810252e-20)
(-0.0532279160476674 -0.000730527651339201 -5.48991735660423e-20)
(-0.0487150775129651 -0.000708722696980387 5.56740999631084e-20)
(-0.0443415012240383 -0.000685000623012784 -5.67679210577671e-20)
(-0.0401187149852826 -0.00065934130861606 -1.36542887795626e-22)
(-0.0360602386110907 -0.000631345461448393 5.86789936080238e-20)
(-0.0321809504280913 -0.000600765724625384 1.19831732824481e-19)
(-0.0285015251025741 -0.000566464229735949 2.67819973985116e-22)
(-0.0250462513817185 -0.000527723610131801 -1.24372478329928e-19)
(-0.0218522833128198 -0.000482077579395959 0)
(-0.0189642029585859 -0.000428119757158277 -1.30201030236082e-19)
(-0.0164497309316837 -0.00036096351064161 1.33143026321428e-19)
(-0.0144000732774332 -0.000277973971117363 1.37010380901539e-19)
(-0.0129251110172199 -0.00017202497322835 -1.40897334304025e-19)
(-0.0122348923077265 -4.10726028804746e-05 0)
(-0.0124097831484172 0.000122803056439121 0)
(-0.014085602488905 -0.000326254369038751 4.97938680750927e-18)
(-0.0137417590767359 -0.0019238475320766 3.93521091031518e-17)
(-0.0115297168317417 -0.0028654742359644 1.50759588102014e-19)
(-0.00812908709239896 -0.00314758385686949 -3.74551124325014e-17)
(-0.00310642395724101 -0.00214613250295999 -1.36047827536729e-21)
(0.00324015029765355 0.000268422125910564 0)
(0.0111590182106041 0.00451548584223965 0)
(0.0210933848154846 0.0110130645531219 1.22829490879638e-19)
(0.0330592589947288 0.0198933693760952 -1.16158158152099e-19)
(0.0470166109698382 0.030944096899577 1.08324437963812e-19)
(0.0627428313025725 0.0438004491312765 5.42514051677085e-17)
(0.0801142774671136 0.0579897476862648 -5.24874789004088e-17)
(0.0981115991661869 0.0725406096579742 0)
(0.115820261832557 0.087081410696807 -4.92579619080743e-20)
(0.133582680690392 0.102275960924466 4.86395933289047e-20)
(0.151964975332065 0.118769629886527 0)
(0.171972082092366 0.137494798327661 4.75389856769444e-17)
(0.195149139414071 0.159809554059153 0)
(0.225959507485483 0.187927945992453 4.26476568359871e-17)
(0.268618847500574 0.220718671842077 -4.72945448252321e-21)
(0.324527461017816 0.254245518371839 4.39840577002416e-21)
(0.399812834811427 0.285502820610044 3.12183496851816e-17)
(0.495729477930709 0.301996161647127 2.68769342907869e-17)
(0.610711791379843 0.282723537549694 -4.78445289555213e-17)
(0.679634437272003 0.197490488023331 1.15561180941795e-17)
(0.638971780708183 0.0932624039658313 0)
(0.504527572025693 0.024923888626983 1.69989356058796e-18)
(0.395940376616211 0.00352724962094635 -9.88304812898365e-22)
(0.487026282602773 0.00096373212984265 7.26413026444947e-22)
(0.476707630822848 -0.00712042744152219 -7.3021393107435e-22)
(0.400392243614445 -0.0290955804212908 6.29604992214748e-18)
(0.171640803551757 -0.0247556775502434 0)
(-0.0604544172955255 0.0379498384980704 -5.12920593061559e-17)
(-0.0944634948424388 0.0565497342112 -6.16316538597243e-17)
(-0.0639156309705997 0.0435457104841009 0)
(-0.0471464916677452 0.0358011021151782 0)
(-0.0364438292099616 0.0293109749545154 6.97412986018009e-17)
(-0.0300913595497756 0.0246152359922763 -7.38479962933537e-17)
(-0.0257178064741172 0.0208897797327992 7.8609037033558e-17)
(-0.0241867626055447 0.0194883790093531 -4.06007487519881e-20)
(-0.024447983166173 0.0196030617928395 0)
(-0.0267577817523719 0.0214915510205968 -8.78974866832222e-17)
(-0.0312856821632139 0.0251565993630536 -8.85368993950426e-17)
(-0.0376744420407699 0.0302342322265539 8.60415613547428e-20)
(-0.0450516318138522 0.0358040022992519 -8.72200909621214e-17)
(-0.0525963456442353 0.0407460850305225 -8.54063372020947e-17)
(-0.0599015103668589 0.0443925389226953 8.36487249513694e-17)
(-0.066475986020599 0.0461019729612385 -8.13236154002364e-17)
(-0.0720646610073723 0.0455398966599251 0)
(-0.0769356665101069 0.0429039521249864 7.63653561899925e-17)
(-0.0813975473880532 0.0387603403173985 1.44396602830765e-19)
(-0.0853352623639987 0.0333742180002744 -7.16729892745499e-17)
(-0.0889489799653292 0.0270586667107712 -3.47705655301973e-17)
(-0.0931969195112204 0.0203735600151528 -3.42643456995528e-17)
(-0.100260915297266 0.0139869107168132 -1.60513819875557e-17)
(-0.115886243018488 0.00883522720269711 3.57656412729574e-18)
(-0.139132591484835 0.00613822205292064 -2.37739910144288e-23)
(-0.158251432069152 0.00504028740324616 -8.78495318773349e-20)
(-0.172045461145187 0.00398033350666013 -8.11142759535036e-20)
(-0.182856746473759 0.00322293026219175 0)
(-0.191302646783119 0.00264138193678389 0)
(-0.198044422389852 0.00218709201014101 -6.82318931415946e-20)
(-0.203407950858751 0.00182088008090191 6.52128680290436e-20)
(-0.207656316852893 0.00151575265685466 -6.28413792943373e-20)
(-0.210954442811325 0.00125458800198881 6.05766257503377e-20)
(-0.213429490235218 0.00102516443860532 0)
(-0.215171731561243 0.000819492283241952 0)
(-0.216251963210327 0.000631922458479892 0)
(-0.216724859735026 0.000458558915081495 0)
(-0.216635030243199 0.000296675555796831 2.67193845052253e-20)
(-0.216019483527083 0.000144410019024546 -2.61461256613427e-20)
(-0.214910293826696 6.65009015612795e-07 -2.5777350450416e-20)
(-0.213338643062209 -0.000135072328631441 5.06121401413412e-20)
(-0.21133265955247 -0.000263329141571318 -2.48652072894169e-20)
(-0.208918097177717 -0.00038492042078245 0)
(-0.206124522708039 -0.000499815465458611 0)
(-0.202976848610179 -0.000607587205412488 0)
(-0.199499306650086 -0.000708389202525334 0)
(-0.19571573471768 -0.000802364106012337 -1.18085628523086e-20)
(-0.191649386712545 -0.000889585911406377 -2.6337119268514e-15)
(-0.187323069997083 -0.000970130739550086 -2.63172323832528e-15)
(-0.182759192867099 -0.00104406286944054 -1.15814663111096e-20)
(-0.177979774034489 -0.00111145665313033 -1.15944240323852e-20)
(-0.17300641270304 -0.00117240083215122 1.15316965357868e-20)
(-0.167860246293657 -0.0012270072224783 0)
(-0.162561892920795 -0.00127541072550555 0)
(-0.157131398211886 -0.00131777015099409 0)
(-0.15158817912679 -0.00135426694890104 0)
(-0.14595097590778 -0.00138510294091428 0)
(-0.140237798976794 -0.00141050224463464 0)
(-0.134465885258665 -0.00143070620239416 0)
(-0.128651643586296 -0.00144597970268515 0)
(-0.122810634201827 -0.00145659230096495 0)
(-0.116957555917238 -0.00146282103043396 0)
(-0.111106341336209 -0.00146489753849461 -1.20843835582164e-20)
(-0.10527032803606 -0.00146300240943657 2.74852662832271e-15)
(-0.0994624985503287 -0.00145722683639106 2.76112275098629e-15)
(-0.0936957519463152 -0.00144761656163909 -1.23753309640483e-20)
(-0.0879827327917831 -0.00143430320127175 2.50807016255674e-20)
(-0.0823354269014732 -0.00141752526077799 -2.52758544890814e-20)
(-0.0767650418834194 -0.00139755681077867 2.56373091004666e-20)
(-0.071281835634991 -0.00137471781645029 -2.58674415344526e-20)
(-0.0658953837824726 -0.00134920546175319 0)
(-0.0606148964221311 -0.00132114610414606 2.65974007528679e-20)
(-0.0554496877934151 -0.00129045269688542 -2.68820721303621e-20)
(-0.050410003455532 -0.00125692381748735 0)
(-0.0455065599100898 -0.00122045821383036 0)
(-0.0407510744536727 -0.00118080537625223 0)
(-0.036155779885622 -0.00113782747828739 0)
(-0.0317350448039562 -0.00109089491230951 0)
(-0.0275047743880726 -0.00103941261773203 0)
(-0.023486779920262 -0.00098164058222977 0)
(-0.0197067027665784 -0.000916067860617304 -6.13018110308216e-20)
(-0.0162029737922274 -0.000838957941954465 1.24993882805223e-19)
(-0.013021727219747 -0.000747423333951062 -1.27790506535847e-19)
(-0.0102316466026468 -0.000633837900331416 6.54158445276946e-20)
(-0.00792502970418861 -0.000493245111005622 0)
(-0.0062126678713666 -0.000312304687759625 0)
(-0.00530422862662044 -8.7077768947203e-05 0)
(-0.00530243969206093 0.000205360866147406 -7.54720414002541e-20)
(-0.00683027294569375 1.47917451046874e-05 -4.92032536071118e-18)
(-0.00636610682003495 -0.00114372551031903 -9.82461946578752e-18)
(-0.00387365830095895 -0.00154010704818732 1.92044231290529e-17)
(-7.11138270331177e-05 -0.00122208121981402 7.25617181506709e-20)
(0.00542510315254469 0.000452090739526841 7.11779221934265e-17)
(0.0123635413981069 0.0036300928570994 -6.66324151326134e-20)
(0.0209854602808301 0.00872520476377643 6.35116620711537e-20)
(0.0317105810603247 0.016110671804559 3.10444314982902e-17)
(0.0445966640659821 0.0259221811451057 -2.95880393416595e-17)
(0.0596124264250883 0.037953842928579 -2.84524876545787e-17)
(0.0765658457065575 0.051872579623241 -5.36321744668986e-20)
(0.0953349786136533 0.0672153384443297 5.81600336101715e-20)
(0.115065574666 0.083186111392708 -2.58979831241442e-20)
(0.134926952959779 0.099520877516192 5.17398225940251e-20)
(0.15520641224084 0.116852211630831 -2.65068186146515e-17)
(0.176455083367612 0.135821488252994 2.57194580757916e-20)
(0.199655705904721 0.157336270281608 -2.61653672633042e-17)
(0.226297223767136 0.182619726697807 -1.23638128758997e-20)
(0.260496277185988 0.213221215025228 1.18517443013667e-20)
(0.306669570937136 0.247636101597343 2.69725119696419e-21)
(0.366356093789116 0.28162474630839 -2.51664755104029e-21)
(0.4447439381149 0.311021505550881 0)
(0.542571001236504 0.322921741977777 0)
(0.658081228907948 0.297246495212166 -1.56276553111445e-20)
(0.739513416554764 0.21088101950041 -6.81678782468559e-18)
(0.732661965262274 0.107344041116426 0)
(0.636440962002315 0.0341278503754743 -1.09754200575957e-18)
(0.534414139939591 0.0075661622387668 0)
(0.567219018409856 0.00284175030552801 0)
(0.549565362657841 -0.00664223913775784 1.01360584463795e-18)
(0.485696288547569 -0.0310714423321098 4.18338086750932e-21)
(0.266007668900785 -0.0364434344763956 2.94858254372853e-21)
(-0.0192940975547132 0.0288121005040621 3.90862462973406e-17)
(-0.104352908937496 0.0633670253516258 5.98562908033228e-17)
(-0.0772652984748631 0.0514168635159232 0)
(-0.0574801417018098 0.0427391811440048 0)
(-0.0452108519490953 0.0357875831545415 6.89653973595606e-17)
(-0.0379648402949265 0.030674194970825 7.33914458562792e-17)
(-0.0331714470553673 0.0267318522460478 -7.82489309246975e-17)
(-0.0316806766578039 0.0254608226093938 0)
(-0.0324550770248355 0.0260793674703748 -8.42027241963354e-17)
(-0.0356801501465862 0.0288354590649482 -1.29224807183173e-21)
(-0.0414394091497455 0.0336151541791208 -8.27690774861352e-17)
(-0.0491313126963937 0.0398159661231299 7.98246112454532e-17)
(-0.0576433866302684 0.0462501034407278 -1.05994242838906e-21)
(-0.0660273691792833 0.0515988544727416 7.16012590090555e-17)
(-0.073836916522031 0.0551419260298807 -6.69304052334719e-17)
(-0.080691547925106 0.0563351780404657 1.23485653115329e-19)
(-0.0865367383881099 0.0550191074718168 -1.13319997496689e-19)
(-0.0917829489626322 0.0515034898976192 0)
(-0.0967926625086959 0.046416701582546 5.09914367530019e-17)
(-0.101618064974009 0.0401019380226962 4.84697047991103e-17)