/*--------------------------------*- C++ -*----------------------------------*\
  =========                 |
  \\      /  F ield         | OpenFOAM: The Open Source CFD Toolbox
   \\    /   O peration     | Website:  https://openfoam.org
    \\  /    A nd           | Version:  7
     \\/     M anipulation  |
\*---------------------------------------------------------------------------*/
FoamFile
{
    version     2.0;
    format      ascii;
    class       volVectorField;
    location    "10000";
    object      wallShearStress;
}
// * * * * * * * * * * * * * * * * * * * * * * * * * * * * * * * * * * * * * //

dimensions      [0 2 -2 0 0 0 0];

internalField   uniform (0 0 0);

boundaryField
{
    bottomWall
    {
        type            calculated;
        value           nonuniform List<vector> 
120
(
(-0.00281972835806274 1.95194712147066e-05 6.1810053511758e-23)
(-0.00336223994897807 8.74342267232674e-05 1.2731081343471e-19)
(-0.00193912428972181 0.00022765214913127 1.88079096131566e-37)
(0.000620834685745543 -9.93648937584795e-05 1.07760285204236e-18)
(0.00146555890559015 -0.000597723705911483 1.31831352708405e-22)
(0.00101611408186105 -0.000573138111963104 2.45833884781845e-22)
(0.000599112875415276 -0.000403925584818782 2.24498966535641e-18)
(0.000425515432610302 -0.000316614035159566 -2.25761254264104e-18)
(0.000299304144732005 -0.000237223605938179 6.36698935474595e-16)
(0.000223950477326209 -0.00018181804391145 6.3679380892669e-16)
(0.000166311283491422 -0.000136289188009217 -5.5500536180768e-22)
(0.000139314319603777 -0.000114226585228906 1.10930294935676e-21)
(0.000125340497057102 -0.000103390912688476 -1.1097739592019e-21)
(0.00012629964581 -0.000104684452776342 2.26959917491579e-18)
(0.000142294722430754 -0.000117372716467643 2.26962759021369e-18)
(0.000171691701340326 -0.000139621623094283 2.2097924416807e-21)
(0.000208089000815069 -0.000165596298088462 2.25224771942544e-18)
(0.000243929641959433 -0.000187655719021821 -4.49787113513661e-18)
(0.000276679965062363 -0.000202464418594781 2.23856559230703e-18)
(0.000301315497980099 -0.000205978515647662 2.24508393498926e-18)
(0.000312581647530438 -0.000195528704359355 -2.23978715737558e-18)
(0.000312038335914938 -0.000173825543502789 2.23515692629677e-18)
(0.00030575390303997 -0.00014715493202163 2.36699846247679e-24)
(0.000291717673092301 -0.000117204532895602 -2.22524535211866e-18)
(0.000268746560175862 -8.57471076466966e-05 6.01853107621011e-36)
(0.00024177229593767 -5.53598162187541e-05 1.92592994438724e-34)
(0.000195324472017491 -2.64880590517444e-05 1.61838112969531e-16)
(0.000221259963208846 -1.31693810195035e-05 1.63696909575639e-16)
(0.00038743396594911 -8.28777921588486e-06 -5.15541336180155e-25)
(0.000557165568836288 -7.92274866329721e-06 -1.51154861264215e-32)
(0.000689546047902771 -7.54512128727258e-06 0)
(0.000805171132993688 -7.29315313744433e-06 1.74317948859564e-16)
(0.000902303714092607 -7.08178721639688e-06 1.75211186466859e-16)
(0.000986130801078908 -6.90899710232933e-06 0)
(0.00105846488417801 -6.77223919680956e-06 -2.93890946615807e-53)
(0.00112156036573712 -6.64665646515696e-06 -1.87902005704773e-51)
(0.00117666329956995 -6.5237824916981e-06 -0)
(0.0012248629166039 -6.3916404437232e-06 1.96526913601561e-21)
(0.00126686571534896 -6.24470436697932e-06 -1.62329002702282e-16)
(0.00130323452262186 -6.078301399388e-06 -1.63845643589844e-16)
(0.00133437054611565 -5.88993389643148e-06 1.95330777581472e-21)
(0.00136058760796635 -5.67806971372751e-06 1.95941267079716e-21)
(0.00138212756314008 -5.44224186290372e-06 -1.95485595069394e-21)
(0.00139919435438635 -5.18312260142035e-06 1.96378493898247e-21)
(0.00141197256562198 -4.90185600228169e-06 -1.96087662751583e-21)
(0.00142062759095456 -4.5983702363638e-06 -0)
(0.0014252774879743 -4.27224493741783e-06 1.70373824977916e-16)
(0.00142601652903907 -3.92767166414251e-06 1.72023357054002e-16)
(0.00142303587591661 -3.56824236967261e-06 1.98756278983614e-21)
(0.00141649488655154 -3.19705231871569e-06 -9.95712727236391e-22)
(0.00140657217203915 -2.81756257207202e-06 1.00372013548689e-21)
(0.0013934541611199 -2.43238194250465e-06 -2.01285765904118e-21)
(0.00137733105231713 -2.04396305025361e-06 1.68188005853595e-16)
(0.00135839751131452 -1.65473316911836e-06 1.69659812106765e-16)
(0.0013368523828251 -1.26700390444672e-06 5.1021346460243e-22)
(0.00131289766649397 -8.82956871093587e-07 2.64913698206244e-41)
(0.00128673740104676 -5.04589026400492e-07 -3.01105528581312e-32)
(0.00125857610904232 -1.33700371073757e-07 2.60761448922561e-22)
(0.00122861736845733 2.2812504133849e-07 -3.92679791784309e-22)
(0.00119706227965687 5.79524626127467e-07 1.31597915776814e-22)
(0.00116410814643958 9.19348313096621e-07 0)
(0.00112994711070307 1.24667470932714e-06 -2.6777445602841e-22)
(0.00109476497776113 1.56077606032489e-06 2.68674547847154e-22)
(0.00105873983602349 1.8611751413019e-06 -3.15543331377373e-32)
(0.00102204095750531 2.14755933036035e-06 -0)
(0.00098482757903255 2.41989435835968e-06 5.50742827012345e-22)
(0.000947248533336981 2.67821898117237e-06 -5.52819833238865e-22)
(0.000909443538790833 2.92270529163352e-06 -0)
(0.000871545168347438 3.15340678940945e-06 0)
(0.00083368448122642 3.37013645533193e-06 0)
(0.000795991721895979 3.57288455748195e-06 0)
(0.000758590585551027 3.76203798041984e-06 0)
(0.000721595586769838 3.93812402951684e-06 -1.93023006303409e-16)
(0.000685107899238926 4.10212666100668e-06 -3.87474042101721e-16)
(0.000649215868798127 4.25477531777883e-06 -1.94335649978742e-16)
(0.000613998203528938 4.39699387882002e-06 4.71359602146484e-21)
(0.000579526408613104 4.52924318226839e-06 -2.36898699222553e-21)
(0.000545878245984631 4.65153184997995e-06 2.39024702559384e-21)
(0.00051313190997799 4.76444064585806e-06 -2.39911148839419e-21)
(0.000481371392044553 4.86791318014941e-06 -2.02290572050623e-16)
(0.000450677230080991 4.9631229204356e-06 -2.01493309669907e-16)
(0.00042114168847044 5.04954876580055e-06 2.44249695411733e-21)
(0.000392855313164657 5.12880086849428e-06 -2.46191266526638e-21)
(0.000365952346634866 5.19844519885387e-06 4.9452893543287e-21)
(0.000340579397423411 5.26067865593604e-06 -2.48311399194798e-21)
(0.000316986655201408 5.30959865835996e-06 5.00221806225763e-21)
(0.000295465032811599 5.3491309748711e-06 -1.00429946100023e-20)
(0.000276470911184696 5.36808485159134e-06 5.03988807946453e-21)
(0.000260663701426119 5.37155834340016e-06 5.07188350607411e-21)
(0.00024867175344467 5.3510902472502e-06 -1.01746731767246e-20)
(0.000242096513085281 5.35592866550929e-06 2.54048376379182e-26)
(0.00023913476041069 5.25205641426232e-06 6.25078232934558e-25)
(0.000250385387966149 1.22069085545487e-05 -1.46936793852786e-39)
(0.000253155038430591 3.17832536635937e-05 -5.1430412470662e-21)
(0.000246628748045453 4.86561893017366e-05 1.32922268642483e-18)
(0.000235063920859703 6.25729160705809e-05 1.06085433799573e-23)
(0.000209120806999216 6.79187180009835e-05 2.65221974296777e-18)
(0.000170654142569005 6.27522687569745e-05 2.68623604679811e-18)
(0.000113585046003235 4.14414886472168e-05 -2.7026256635473e-18)
(2.86194473794984e-05 -3.58799132496107e-06 2.72067408640305e-18)
(-8.92366595694431e-05 -7.7783371552486e-05 -2.7194320834449e-18)
(-0.000242300369190949 -0.000182230169968537 -2.70301043288249e-18)
(-0.000429288938910161 -0.000314913272162066 -3.12963615962926e-34)
(-0.000649032526990484 -0.000471675133394942 0)
(-0.00088024454155662 -0.00063675178821277 2.65445356190315e-18)
(-0.00111068414904784 -0.000805432273265715 2.64133973620432e-18)
(-0.00135792321059109 -0.000992060376119468 2.6283826846288e-18)
(-0.00163697598776837 -0.00120954608410156 2.61388899420573e-18)
(-0.00197436954210439 -0.00147828520455805 2.59669906654042e-18)
(-0.00241426639013662 -0.00183159415546382 -2.56996196060624e-18)
(-0.00307059711683912 -0.00233069710450656 -2.52611242135019e-18)
(-0.00399832329457761 -0.00295353599105797 2.4613077176423e-18)
(-0.00518524149620681 -0.00362059000711844 -2.36650469415901e-18)
(-0.00679936683658135 -0.00429844999756201 -2.23364552991999e-18)
(-0.00874814188366252 -0.0047059839785631 2.05450266923896e-18)
(-0.0106976332698752 -0.00434812831921459 4.51389830715758e-36)
(-0.0100772898803246 -0.002542126109945 -8.42937324287109e-19)
(-0.00694663108809558 -0.000848950632271684 -1.88079096131566e-37)
(-0.00360676130854031 -0.000121938898696432 1.13814759255809e-19)
(-0.00231666133494986 7.46841654083588e-06 0)
)
;
    }
    topWall
    {
        type            calculated;
        value           nonuniform List<vector> 
120
(
(-0.0041803997096548 2.05729390621359e-07 0)
(-0.00417638581102099 2.86554702030689e-07 0)
(-0.00416945260057584 3.58055571902106e-07 0)
(-0.00415989815535713 4.21048513690643e-07 0)
(-0.00414795212317824 4.7693167795775e-07 0)
(-0.00413381897713561 5.25885361631773e-07 0)
(-0.00411776477472806 5.66785945592501e-07 0)
(-0.00410009240317859 5.9895193747733e-07 0)
(-0.00408111187224005 6.22652888572677e-07 0)
(-0.00406110804374873 6.39419353345899e-07 0)
(-0.00404031204683871 6.5083625767685e-07 0)
(-0.00401891462197641 6.57765539158564e-07 0)
(-0.00399707126127417 6.61192688876506e-07 0)
(-0.00397491324049284 6.61549148855768e-07 0)
(-0.00395255093649102 6.5975683507716e-07 0)
(-0.00393006848138504 6.57033298019678e-07 0)
(-0.00390748174526585 6.54613175738716e-07 0)
(-0.0038847551177295 6.53102140509662e-07 0)
(-0.00386189429370404 6.51654746897999e-07 0)
(-0.00383893022671186 6.49975149920491e-07 0)
(-0.0038158852576605 6.48364368294949e-07 0)
(-0.00379276449776196 6.46976452331978e-07 0)
(-0.00376957095224033 6.45695230142478e-07 0)
(-0.00374630401848189 6.44937439885542e-07 0)
(-0.00372294671836601 6.45109247681379e-07 0)
(-0.00369947310186756 6.45992301115125e-07 0)
(-0.0036758701410621 6.46990223296817e-07 0)
(-0.00365213796044501 6.48153240767042e-07 0)
(-0.00362826794961637 6.49850541939467e-07 0)
(-0.00360424646780872 6.51769279797112e-07 0)
(-0.00358007376329491 6.53350676498759e-07 0)
(-0.00355576588765897 6.54447049669522e-07 0)
(-0.00353133636373777 6.5533505825078e-07 0)
(-0.00350679610054803 6.55819195156596e-07 0)
(-0.00348216298787367 6.55596499142158e-07 0)
(-0.00345746750026746 6.54312664222961e-07 0)
(-0.00343274733786155 6.52072419173206e-07 0)
(-0.00340803525387963 6.49023368136485e-07 0)
(-0.00338336389992519 6.44977121621438e-07 0)
(-0.00335877277717744 6.39683401248499e-07 0)
(-0.00333431084702314 6.32978683018565e-07 0)
(-0.00331002789697626 6.25084121551606e-07 0)
(-0.00328596768262376 6.16073013799689e-07 0)
(-0.00326217520231501 6.05832295075822e-07 0)
(-0.00323869744805236 5.94294277974621e-07 0)
(-0.00321558663949251 5.81273968903891e-07 0)
(-0.00319289830884495 5.66934081430783e-07 0)
(-0.00317067990970646 5.51510829237659e-07 0)
(-0.00314897649167876 5.34900434714322e-07 0)
(-0.0031278349277608 5.1712262050892e-07 0)
(-0.0031073012872496 4.98123320276214e-07 0)
(-0.003087425679809 4.77810789387476e-07 0)
(-0.00306825744345577 4.56403841961932e-07 0)
(-0.00304983847651738 4.34053571062344e-07 0)
(-0.00303220841254637 4.10705868376339e-07 0)
(-0.00301540856435734 3.86364398643837e-07 0)
(-0.00299947772811119 3.61108442911234e-07 0)
(-0.00298445456828091 3.34809435641915e-07 0)
(-0.00297038223292417 3.07465583907624e-07 0)
(-0.00295729917448847 2.79335037971252e-07 0)
(-0.00294523809936067 2.50423848049541e-07 0)
(-0.00293423236084235 2.20693310429503e-07 0)
(-0.00292431546222524 1.90157675735102e-07 0)
(-0.00291552024585227 1.58828195279536e-07 0)
(-0.00290787899181928 1.26721545231288e-07 0)
(-0.00290142309705085 9.38118542755085e-08 0)
(-0.00289618630337169 6.00099242753236e-08 0)
(-0.0028922032114734 2.54121973952493e-08 0)
(-0.00288950393292143 -9.88498057177726e-09 0)
(-0.00288811798511317 -4.59649125259641e-08 0)
(-0.00288807629866789 -8.2862525397481e-08 0)
(-0.00288940991141088 -1.20885232228981e-07 0)
(-0.00289217080978289 -1.6000763920282e-07 0)
(-0.00289639529736602 -1.99871534195184e-07 0)
(-0.00290210975433118 -2.40366825215833e-07 0)
(-0.00290933678639268 -2.81452036364334e-07 0)
(-0.00291810117784341 -3.23210364445106e-07 0)
(-0.00292843036344468 -3.65705517666515e-07 0)
(-0.00294035443556247 -4.08842345443611e-07 0)
(-0.00295389208509038 -4.52577112468303e-07 0)
(-0.00296908074560867 -4.97763020183843e-07 0)
(-0.00298596719356974 -5.43724084033397e-07 0)
(-0.00300456840767994 -5.89880008625848e-07 0)
(-0.00302489311698895 -6.36188429503734e-07 0)
(-0.00304693246336145 -6.81957792142176e-07 0)
(-0.00307066728000168 -7.27183675315549e-07 0)
(-0.00309607420857833 -7.71574810631025e-07 0)
(-0.00312313597134226 -8.15817418336428e-07 0)
(-0.0031518616106748 -8.60203762445136e-07 0)
(-0.0031822536846191 -9.0401273082628e-07 0)
(-0.0032142956793141 -9.47141954404513e-07 0)
(-0.00324797219744055 -9.89607504273731e-07 0)
(-0.00328325808236561 -1.03051614893853e-06 0)
(-0.00332009072049714 -1.06893368613471e-06 0)
(-0.00335839208562073 -1.1049949382222e-06 0)
(-0.00339808272457521 -1.13800700414077e-06 0)
(-0.00343904488433079 -1.16662881364481e-06 0)
(-0.00348112988452906 -1.19066751695067e-06 0)
(-0.00352418416996747 -1.20972864754691e-06 0)
(-0.00356802738952556 -1.22242875360706e-06 0)
(-0.00361242993604151 -1.22812478130551e-06 0)
(-0.00365716850898307 -1.22773155181709e-06 0)
(-0.00370202632120941 -1.21976254556902e-06 0)
(-0.00374671447580594 -1.20194453485316e-06 0)
(-0.00379089854675048 -1.17437955649826e-06 0)
(-0.00383424594379869 -1.137147375031e-06 0)
(-0.00387641710399868 -1.0900066801845e-06 0)
(-0.0039170631094489 -1.03290177134807e-06 0)
(-0.00395583281536188 -9.66012477743457e-07 0)
(-0.00399238038814596 -8.89774518596803e-07 0)
(-0.00402637455375061 -8.04904986870094e-07 0)
(-0.00405750746073913 -7.12357385310544e-07 0)
(-0.00408550244328198 -6.13538789906997e-07 0)
(-0.0041101371801277 -5.10385112441882e-07 0)
(-0.0041312447806622 -4.04221332312645e-07 0)
(-0.00414869389650515 -2.96248617822858e-07 0)
(-0.00416240086371737 -1.8835059170625e-07 0)
(-0.00417234653220227 -8.24263405660249e-08 0)
(-0.00417857777506916 1.96550686619356e-08 0)
(-0.00418120783517748 1.16237120035535e-07 0)
)
;
    }
    inlet_half0
    {
        type            cyclic;
    }
    inlet_half1
    {
        type            cyclic;
    }
    outlet_half0
    {
        type            cyclic;
    }
    outlet_half1
    {
        type            cyclic;
    }
    sideRight_half0
    {
        type            empty;
    }
    sideRight_half1
    {
        type            empty;
    }
    sideLeft_half0
    {
        type            empty;
    }
    sideLeft_half1
    {
        type            empty;
    }
}


// ************************************************************************* //
