1.00000000000453e-06 	1.00195556483898 	0 	0.0650763279191333 	-0.000107484668347088 	-1.60087983009671e-22
1.00000000000453e-06 	1.00593833258374 	0 	0.211852590443328 	0.000214174289261487 	-2.8359192097114e-22
1.00000000000453e-06 	1.01006700077429 	0 	0.36946449921169 	0.00176860208402425 	-1.56268856670776e-22
1.00000000000453e-06 	1.0143469141712 	0 	0.498390769119648 	0.00428872999916705 	5.80832338684128e-23
1.00000000000453e-06 	1.01878361332929 	0 	0.584091102514542 	0.0070698034521369 	4.81658965022926e-23
1.00000000000453e-06 	1.02338284177015 	-3.46944695195361e-18 	0.636888127237572 	0.00975258500756949 	-8.52717258724475e-23
1.00000000000453e-06 	1.02815055341735 	-6.93889390390723e-18 	0.669972123541119 	0.0122333758670433 	-2.54704656732264e-24
1.00000000000453e-06 	1.03309292030413 	-6.93889390390723e-18 	0.691894039133471 	0.0145010832552488 	8.01670990388636e-23
1.00000000000453e-06 	1.03821634056339 	-6.93889390390723e-18 	0.707449607944704 	0.0165855645422556 	9.78431620134902e-24
1.00000000000453e-06 	1.04352744671036 	-1.04083408558608e-17 	0.719237260953106 	0.0185212103048615 	-8.59741287299903e-23
1.00000000000453e-06 	1.04903311422874 	-1.04083408558608e-17 	0.728692091286526 	0.0203370280021216 	-8.10450902976988e-23
1.00000000000453e-06 	1.05474047047132 	-6.93889390390723e-18 	0.736640838105204 	0.0220559731184508 	-2.53706909063373e-23
1.00000000000453e-06 	1.06065690388671 	-3.46944695195361e-18 	0.743582657147336 	0.0236958148161748 	3.13849598733231e-23
1.00000000000453e-06 	1.06679007358401 	-3.46944695195361e-18 	0.749832488665683 	0.0252701899515966 	6.27725406221713e-23
1.00000000000453e-06 	1.07314791924792 	-6.93889390390723e-18 	0.755596952502175 	0.0267895289243518 	4.52296004121145e-23
1.00000000000453e-06 	1.07973867141705 	-3.46944695195361e-18 	0.761016303546856 	0.0282617685955626 	6.78154402427538e-16
1.00000000000453e-06 	1.08657086213875 	0 	0.766188637030606 	0.0296928762345667 	7.25019982131852e-16
1.00000000000453e-06 	1.09365333601424 	0 	0.771184412593882 	0.0310872323112848 	-5.84393104264345e-16
1.00000000000453e-06 	1.10099526164836 	3.46944695195361e-18 	0.77605548236889 	0.0324479113702595 	-6.31258694475011e-16
1.00000000000453e-06 	1.10860614351884 	6.93889390390723e-18 	0.780840887382224 	0.033776890395337 	-1.73009670393732e-23
1.00000000000453e-06 	1.11649583428022 	3.46944695195361e-18 	0.785570694007676 	0.0350752083970273 	-5.88679147851567e-23
1.00000000000453e-06 	1.12467454751866 	6.93889390390723e-18 	0.790268605333097 	0.0363430944093458 	-3.96887976428513e-23
1.00000000000453e-06 	1.13315287097387 	1.73472347597681e-17 	0.794953783840057 	0.0375800750130247 	1.75715857995251e-23
1.00000000000453e-06 	1.1419417802455 	2.08166817117217e-17 	0.799642152066775 	0.0387850688756397 	2.64172325873796e-24
1.00000000000453e-06 	1.15105265300152 	1.38777878078145e-17 	0.804347338435532 	0.039956473373188 	-4.80777673414133e-23
1.00000000000453e-06 	1.1604972837072 	1.04083408558608e-17 	0.809081375408733 	0.0410922466413207 	-4.91770312613638e-23
1.00000000000453e-06 	1.17028789889366 	1.38777878078145e-17 	0.813855219989471 	0.0421899872222429 	-1.67565161869724e-23
1.00000000000453e-06 	1.1804371729856 	1.73472347597681e-17 	0.818679143017055 	0.0432470125712349 	0
1.00000000000453e-06 	1.19095824470904 	2.42861286636753e-17 	0.823563018479019 	0.0442604369037104 	-2.95816455737379e-23
1.00000000000453e-06 	1.20186473410003 	2.42861286636753e-17 	0.828516534134762 	0.045227248088899 	-5.91632598562837e-23
1.00000000000453e-06 	1.21317076013637 	2.08166817117217e-17 	0.833549338329005 	0.0461443824665939 	-2.95816142559289e-23
1.00000000000453e-06 	1.22489095901542 	2.08166817117217e-17 	0.838671133961429 	0.0470087956666532 	0
1.00000000000453e-06 	1.23704050310128 	2.08166817117217e-17 	0.843891727535358 	0.0478175277364353 	-1.41961958539283e-24
1.00000000000453e-06 	1.24963512056619 	2.42861286636753e-17 	0.849221035901339 	0.0485677624785317 	-2.84564181282551e-24
1.00000000000453e-06 	1.26269111575139 	2.77555756156289e-17 	0.854669048309056 	0.0492568808689231 	-1.41964226937713e-24
1.00000000000453e-06 	1.27622539027388 	2.77555756156289e-17 	0.860245745242665 	0.0498825078126606 	0
1.00000000000453e-06 	1.29025546490643 	2.77555756156289e-17 	0.865960982620709 	0.0504425545206116 	0
1.00000000000453e-06 	1.30479950225895 	2.77555756156289e-17 	0.871824347173152 	0.0509352605725533 	-6.43323383741593e-23
1.00000000000453e-06 	1.31987633029101 	3.12250225675825e-17 	0.877844980877404 	0.0513592363845009 	-6.16286646583615e-23
1.00000000000453e-06 	1.33550546668544 	3.81639164714898e-17 	0.884031368526298 	0.0517135026961302 	1.3792255816139e-22
1.00000000000453e-06 	1.35170714411495 	3.81639164714898e-17 	0.890391082859884 	0.0519975210150618 	2.7162419731534e-22
1.00000000000453e-06 	1.3685023364343 	3.81639164714898e-17 	0.896930484688209 	0.0522112079814401 	2.75335328953891e-22
1.00000000000453e-06 	1.38591278583198 	4.16333634234434e-17 	0.903654379995734 	0.0523549279273787 	2.09637661480175e-22
1.00000000000453e-06 	1.40396103097652 	4.16333634234434e-17 	0.910565641915972 	0.0524294594999376 	7.06929224809461e-23
1.00000000000453e-06 	1.42267043619387 	3.81639164714898e-17 	0.91766481425578 	0.052435933662437 	-2.98938853100105e-22
1.00000000000453e-06 	1.44206522171365 	3.12250225675825e-17 	0.924949723204283 	0.052375745023747 	-5.97947573078954e-22
1.00000000000453e-06 	1.46217049502345 	3.12250225675825e-17 	0.932415128425976 	0.0522504444547678 	-2.98977874248163e-22
1.00000000000453e-06 	1.48301228337162 	2.77555756156289e-17 	0.940052441412504 	0.0520616232784561 	3.18537084147279e-22
1.00000000000453e-06 	1.50461756746086 	2.42861286636753e-17 	0.947849531395907 	0.0518107985675072 	7.99902300654919e-22
1.00000000000453e-06 	1.52701431637603 	2.77555756156289e-17 	0.955790631014173 	0.0514993072638226 	4.78148386466484e-22
1.00000000000453e-06 	1.55023152379144 	3.46944695195361e-17 	0.963856347460993 	0.0511282143691686 	-1.69198762955537e-22
1.00000000000453e-06 	1.57429924550461 	3.81639164714898e-17 	0.972023780897917 	0.0506982379672017 	-3.38598039870096e-22
1.00000000000453e-06 	1.59924863834497 	3.46944695195361e-17 	0.980266749905473 	0.0502096920714767 	-3.45358489338132e-22
1.00000000000453e-06 	1.62511200050782 	4.16333634234434e-17 	0.988556122522273 	0.0496624478452698 	-3.51550370765198e-22
1.00000000000453e-06 	1.65192281336593 	4.5102810375397e-17 	0.996860250194661 	0.0490559140208718 	3.71187696860923e-22
1.00000000000453e-06 	1.67971578481283 	3.81639164714898e-17 	1.00514550132926 	0.04838903746521 	1.27928055876391e-21
1.00000000000453e-06 	1.70852689419381 	3.81639164714898e-17 	1.01337689119733 	0.0476603254696069 	7.29171623768393e-22
1.00000000000453e-06 	1.73839343888296 	4.16333634234434e-17 	1.02151880362493 	0.0468678918462672 	0
1.00000000000453e-06 	1.76935408256639 	4.5102810375397e-17 	1.0295357967388 	0.0460095269763435 	0
1.00000000000453e-06 	1.80144890529426 	4.85722573273506e-17 	1.03739348128784 	0.0450827882080378 	0
1.00000000000453e-06 	1.83471945536634 	4.85722573273506e-17 	1.04505945491645 	0.0440851043889392 	0
1.00000000000453e-06 	1.86920880311829 	4.5102810375397e-17 	1.05250426162423 	0.0430138922586426 	2.44072678216775e-24
1.00000000000453e-06 	1.9049615966783 	5.20417042793042e-17 	1.05970230874523 	0.0418667201881929 	4.79761543200787e-24
1.00000000000453e-06 	1.94202411976624 	5.8702771376512e-17 	1.06663261517338 	0.0406413469246479 	2.44242245813781e-24
1.00000000001227e-06 	1.98044435161019 	1.38777878078145e-17 	1.07327889539985 	0.0393360672058798 	0
1.00000000001227e-06 	2.02024009608346 	1.38777878078145e-17 	1.07957783936906 	0.0379627956416199 	0
1.00000000001227e-06 	2.06000503604194 	6.93889390390723e-18 	1.0853830986208 	0.0365619419285651 	0
1.00000000001227e-06 	2.09836474743797 	0 	1.09059665952423 	0.0351762770486603 	0
1.00000000001227e-06 	2.13536888877258 	0 	1.09524983141312 	0.0338229721646508 	0
1.00000000001227e-06 	2.17106536369585 	3.46944695195361e-18 	1.09941424562755 	0.0325060410256244 	0
1.00000000001227e-06 	2.20550038302045 	3.46944695195361e-18 	1.10314865897993 	0.0312284709693439 	0
1.00000000001227e-06 	2.23871852454379 	-6.93889390390723e-18 	1.10650079744982 	0.0299922902532261 	0
1.00000000001227e-06 	2.27076279075614 	-1.38777878078145e-17 	1.10950916732341 	0.0287986466910669 	0
1.00000000001227e-06 	2.30167466450941 	-1.38777878078145e-17 	1.11220467820441 	0.0276479530360632 	0
1.00000000001227e-06 	2.33149416271873 	-1.04083408558608e-17 	1.11461202535663 	0.0265400277089855 	0
1.00000000001227e-06 	2.36025988816627 	-1.04083408558608e-17 	1.11675082660613 	0.0254742247591122 	0
1.00000000001227e-06 	2.38800907947441 	-1.38777878078145e-17 	1.11863653125601 	0.0244495495919671 	0
1.00000000001227e-06 	2.41477765931296 	-1.38777878078145e-17 	1.12028112901749 	0.0234647576392545 	0
1.00000000001227e-06 	2.44060028090273 	-1.38777878078145e-17 	1.12169369025568 	0.0225184354549257 	0
1.00000000001227e-06 	2.46551037287587 	-1.38777878078145e-17 	1.12288076778062 	0.0216090652660409 	0
1.00000000001227e-06 	2.48954018255081 	-1.38777878078145e-17 	1.12384668718894 	0.0207350748032837 	0
1.00000000001227e-06 	2.512720817678 	-1.38777878078145e-17 	1.12459374880371 	0.0198948745716287 	0
1.00000000001227e-06 	2.53508228671037 	-1.38777878078145e-17 	1.12512236040876 	0.0190868847548436 	0
1.00000000001227e-06 	2.55665353765073 	-1.04083408558608e-17 	1.1254311166856 	0.0183095537969773 	0
1.00000000001227e-06 	2.57746249552637 	-1.04083408558608e-17 	1.12551683875514 	0.0175613704605659 	0
1.00000000001227e-06 	2.59753609853934 	-1.04083408558608e-17 	1.12537458558053 	0.0168408708864851 	0
1.00000000001227e-06 	2.6169003329393 	-6.93889390390723e-18 	1.12499764819788 	0.0161466419120184 	0
1.00000000001227e-06 	2.6355802666639 	-1.38777878078145e-17 	1.12437753774798 	0.0154773216628438 	0
1.00000000001227e-06 	2.6536000817905 	-2.08166817117217e-17 	1.12350397897072 	0.0148315982310649 	0
1.00000000001227e-06 	2.67098310584103 	-2.08166817117217e-17 	1.12236492200137 	0.0142082070878253 	0
1.00000000001227e-06 	2.68775184198057 	-2.77555756156289e-17 	1.12094658667567 	0.0136059277537872 	0
1.00000000001227e-06 	2.7039279981488 	-3.46944695195361e-17 	1.11923355465893 	0.0130235801595181 	0
1.00000000001227e-06 	2.71953251516198 	-3.46944695195361e-17 	1.11720892494664 	0.012460021064519 	0
1.00000000001227e-06 	2.73458559382185 	-3.46944695195361e-17 	1.11485454686952 	0.0119141408608026 	0
1.00000000001227e-06 	2.74910672106653 	-3.46944695195361e-17 	1.11215134084398 	0.0113848610561323 	0
1.00000000001227e-06 	2.76311469519732 	-3.46944695195361e-17 	1.1090797100308 	0.0108711327043547 	0
1.00000000001227e-06 	2.776627650214 	-3.46944695195361e-17 	1.10562003549941 	0.0103719360173038 	0
1.00000000001227e-06 	2.78966307929018 	-3.46944695195361e-17 	1.10175323385952 	0.00988628134812907 	0
1.00000000001227e-06 	2.80223785741905 	-3.81639164714898e-17 	1.09746134099272 	0.0094132116766258 	0
1.00000000001227e-06 	2.81436826325886 	-4.5102810375397e-17 	1.09272807081285 	0.00895180665466157 	0
1.00000000001227e-06 	2.82607000020648 	-4.85722573273506e-17 	1.08753928678689 	0.00850118818951207 	0
1.00000000001227e-06 	2.83735821672614 	-5.55111512312578e-17 	1.08188331894271 	0.00806052746250819 	0
1.00000000001227e-06 	2.8482475259599 	-6.24500451351651e-17 	1.0757510618471 	0.00762905320709763 	0
1.00000000001227e-06 	2.85875202464506 	-6.24500451351651e-17 	1.06913579927993 	0.00720606100902466 	0
1.00000000001227e-06 	2.86888531136304 	-6.24500451351651e-17 	1.06203271673894 	0.00679092334402218 	0
1.00000000001227e-06 	2.87866050414343 	-6.24500451351651e-17 	1.05443807958872 	0.00638310003685036 	0
1.00000000001227e-06 	2.88809025744591 	-6.24500451351651e-17 	1.04634806806196 	0.00598214881391908 	0
1.00000000001227e-06 	2.89718677854204 	-6.24500451351651e-17 	1.03775726617963 	0.0055877356387687 	0
1.00000000001227e-06 	2.90596184331819 	-6.24500451351651e-17 	1.0286567965788 	0.0051996445774933 	0
1.00000000001227e-06 	2.91442681151997 	-6.59194920871187e-17 	1.0190320746032 	0.00481778705144218 	0
1.00000000001227e-06 	2.92259264145801 	-6.93889390390723e-17 	1.00886012027644 	0.00444221050323945 	0
1.00000000001227e-06 	2.93046990419395 	-7.28583859910259e-17 	0.998106312275775 	0.00407310672605344 	0
1.00000000001227e-06 	2.93806879722526 	-7.63278329429795e-17 	0.9867203873144 	0.00371082037284522 	0
1.00000000001227e-06 	2.94539915768639 	-7.28583859910259e-17 	0.974631369896669 	0.00335585844982437 	0
1.00000000001227e-06 	2.95247047508335 	-6.93889390390723e-17 	0.961740941029071 	0.00300890184948242 	0
1.00000000001227e-06 	2.9592919035784 	-6.93889390390723e-17 	0.947914485118273 	0.00267082011458651 	0
1.00000000001227e-06 	2.96587227384056 	-6.93889390390723e-17 	0.932968630941296 	0.00234269103609714 	0
1.00000000001227e-06 	2.97222010447726 	-7.28583859910259e-17 	0.916653417096004 	0.00202582823683639 	0
1.00000000001227e-06 	2.97834361306218 	-7.97972798949331e-17 	0.898626068268588 	0.00172181437596148 	0
1.00000000001227e-06 	2.98425072677325 	-7.97972798949331e-17 	0.878411397762805 	0.00143249118006808 	0
1.00000000001227e-06 	2.98994909265478 	-7.63278329429795e-17 	0.85534034865416 	0.00115996168637984 	0
1.00000000001227e-06 	2.99544608751689 	-7.63278329429795e-17 	0.828411288022162 	0.000907172120961203 	0
1.00000000001227e-06 	3.00074882748522 	-7.97972798949331e-17 	0.796023577552076 	0.00067822008082014 	0
1.00000000001227e-06 	3.00586417721304 	-8.67361737988404e-17 	0.755683593218362 	0.000478197373866282 	0
1.00000000001227e-06 	3.01079875876789 	-9.0205620750794e-17 	0.703702151973428 	0.000312437910948248 	0
1.00000000001227e-06 	3.01555896020418 	-9.0205620750794e-17 	0.63468710450574 	0.000183844626034525 	0
1.00000000001227e-06 	3.02015094383281 	-9.71445146547012e-17 	0.540866837835746 	9.17479731397959e-05 	0
1.00000000001227e-06 	3.02458065419862 	-1.00613961606655e-16 	0.415077531672623 	3.36348725644013e-05 	0
1.00000000001227e-06 	3.02885382577583 	-1.04083408558608e-16 	0.260032158753591 	5.6424840333819e-06 	0
