7 	0.0118766634903468 	1.73472347597681e-17 	0.0572205058480924 	0.00115807730843767 	1.19558721934138e-19
7 	0.0201339998195326 	1.90819582357449e-17 	0.0940371698137524 	0.00263024290719649 	9.42328903924755e-21
7 	0.0286938265600376 	2.25514051876985e-17 	0.117309004843189 	0.00402665453254373 	-3.37107971809168e-20
7 	0.0375672248214896 	2.25514051876985e-17 	0.132403894073863 	0.00537546007711885 	-3.19615342748534e-21
7 	0.0467656816470147 	2.25514051876985e-17 	0.143629171235424 	0.00669946937519847 	1.28785874812838e-20
6.99999999999999 	0.0563011048837713 	2.08166817117217e-17 	0.152841618928787 	0.0079919074729275 	-2.7043094922529e-23
7 	0.0661858385982334 	1.21430643318376e-17 	0.160873887215152 	0.00925266122637424 	-1.57748827653312e-20
7 	0.0764326790561828 	0 	0.168157415046389 	0.0104848598715981 	-1.32771449787872e-20
7 	0.0870548912880936 	-3.46944695195361e-18 	0.174943505193218 	0.0116910937920329 	3.39175932907753e-23
7 	0.0980662262613554 	3.46944695195361e-18 	0.181391878707396 	0.0128731977338839 	1.08995694295831e-20
7 	0.109480938681567 	1.04083408558608e-17 	0.187611158249506 	0.0140324970120034 	-2.33563579482951e-20
6.99999999999999 	0.121313805445942 	1.04083408558608e-17 	0.193679396705924 	0.0151699311231494 	-1.28753934366198e-21
6.99999999999999 	0.133580144772717 	6.93889390390723e-18 	0.199655363997576 	0.0162861277662324 	1.87127602828552e-23
6.99999999999999 	0.146295836031327 	3.46944695195361e-18 	0.205585168061756 	0.0173814621944807 	8.62001605671881e-21
6.99999999999999 	0.159477340299017 	3.46944695195361e-18 	0.211506350812067 	0.0184561042875699 	-6.47025500300095e-22
7 	0.173141721670501 	6.93889390390723e-18 	0.217450537891624 	0.0195100554054313 	-3.13054024502529e-22
7 	0.187306669348262 	6.93889390390723e-18 	0.223445220312777 	0.0205431779955797 	-1.66789343483077e-20
7 	0.20199052054208 	6.93889390390723e-18 	0.229514994014078 	0.0215552202031929 	-1.63227516551461e-20
7 	0.217212284207436 	6.93889390390723e-18 	0.235682449315038 	0.0225458370574339 	2.4949395412925e-22
7 	0.232991665653523 	1.04083408558608e-17 	0.241968827548328 	0.0235146094130805 	2.11283364363347e-22
7 	0.249349092052728 	1.04083408558608e-17 	0.248394518791875 	0.0244610615724728 	1.52024865879388e-20
7 	0.266305738884589 	0 	0.254979448530851 	0.0253846783337276 	1.51498495070469e-20
7 	0.283883557348484 	-6.28837260041593e-18 	0.261741592527597 	0.0262885633602482 	1.49820189476168e-20
7 	0.302105302780516 	-1.01915004213637e-17 	0.268697351955341 	0.0271821108940856 	4.19379113321414e-22
7 	0.320994564111403 	-1.43114686768087e-17 	0.275874677076229 	0.0280510823405533 	1.94747978503642e-22
7 	0.340575794403482 	-1.56125112837913e-17 	0.283294190419206 	0.0288950131211364 	-2.33310671533809e-21
7 	0.360874342506392 	-1.47451495458029e-17 	0.290977159890292 	0.0297134866962111 	-3.41690328196194e-21
7 	0.38191648587238 	-1.64798730217797e-17 	0.298945611051532 	0.0305061578726355 	-2.16854769310507e-20
7 	0.403729464573739 	-2.08166817117217e-17 	0.307222416273204 	0.0312727781099331 	7.8708850457942e-22
7 	0.426341516566396 	-2.60208521396521e-17 	0.31583136038413 	0.0320132226685697 	3.7769875276168e-21
7 	0.44978191424532 	-2.94902990916057e-17 	0.324797180873365 	0.0327275191760249 	1.97433090214776e-20
7 	0.474081002339049 	-2.42861286636753e-17 	0.334145579169538 	0.0334158768323956 	-2.44655517235502e-21
7 	0.499270237192413 	-2.42861286636753e-17 	0.343903197971098 	0.0340787150155534 	-1.42278381703475e-21
7 	0.525382227488298 	-2.77555756156289e-17 	0.354097557973583 	0.0347166894539909 	1.81826396872829e-20
7 	0.552450776461161 	-2.42861286636753e-17 	0.364756945610993 	0.0353307133929902 	-5.89994875631105e-22
7 	0.580510925656956 	-1.73472347597681e-17 	0.375910241598407 	0.0359219702703759 	5.4676257534087e-21
7 	0.609599000296117 	-1.04083408558608e-17 	0.387586678170338 	0.0364919133443595 	1.16065359393882e-20
7 	0.639752656298308 	-6.93889390390723e-18 	0.399815511086079 	0.0370422465243334 	-1.63562881348726e-20
7 	0.671010929029843 	-3.46944695195361e-18 	0.412625590945001 	0.0375748794893731 	1.40950199801561e-20
7 	0.703414283836854 	-1.04083408558608e-17 	0.426044817376869 	0.0380918494882149 	1.16016282206618e-16
7 	0.737004668429647 	-1.38777878078145e-17 	0.440099460049781 	0.0385952017451677 	1.62340144060813e-16
7 	0.761419519668443 	-6.93889390390723e-18 	0.45039554174374 	0.0389440999286264 	-6.07054638677834e-17
7 	0.779162313841552 	-4.55364912443912e-18 	0.457912896419585 	0.039187444954508 	-1.98843219274811e-16
6.99999999999999 	0.807992742715646 	4.55364912443912e-18 	0.470179921746942 	0.0395691160856302 	-1.23444852639276e-16
6.99999999999999 	0.845475280399477 	9.10729824887824e-18 	0.486242555958442 	0.0400418433843007 	1.2258151215176e-20
6.99999999999999 	0.884326557652535 	8.67361737988404e-18 	0.503009554208847 	0.0405048929749304 	8.90518642142943e-21
6.99999999999999 	0.924596372923087 	3.46944695195361e-18 	0.520484346977948 	0.0409565034105988 	1.84772928718432e-20
6.99999999999999 	0.966336321272196 	-3.46944695195361e-18 	0.538661797230194 	0.0413927821499741 	-3.61867706726615e-20
6.99999999999999 	1.00959985787075 	-5.20417042793042e-18 	0.557527209884222 	0.041807293636791 	2.04041344002476e-20
6.99999999999999 	1.05444236361788 	-6.93889390390723e-18 	0.577055560190862 	0.0421907939664819 	2.34668343281248e-21
6.99999999999999 	1.10092121293912 	-3.46944695195361e-18 	0.597206215688246 	0.0425328358236145 	6.06837417276073e-20
6.99999999999999 	1.14909584382294 	0 	0.617920594622457 	0.0428125652270871 	-5.72460051991892e-21
7 	1.19902783015393 	-3.46944695195361e-18 	0.63912195107034 	0.0430144738698443 	3.8641379834177e-20
7 	1.25078095640108 	-8.45677694538693e-18 	0.660718277889196 	0.0431153161329549 	-4.49203873623512e-20
7 	1.30442129471847 	-1.01915004213637e-17 	0.682621373851754 	0.0430987796134271 	-7.72882831812348e-20
7 	1.36001728451516 	-1.04083408558608e-17 	0.704608674103774 	0.0429335748340328 	-8.45400515755466e-21
7 	1.41763981454947 	-1.38777878078145e-17 	0.726506004469858 	0.0426128052948367 	-1.59634786126229e-20
7 	1.47736230760124 	-1.56125112837913e-17 	0.748144848647575 	0.0421274447624438 	-2.86979398604733e-16
7 	1.53926080777324 	-1.04083408558608e-17 	0.769392105675383 	0.0414902549956481 	-1.95020714121792e-15
7 	1.60341407047001 	-1.38777878078145e-17 	0.790128907823275 	0.0407004142033099 	1.69864752655707e-15
7 	1.66893489902569 	-1.04083408558608e-17 	0.809955112447538 	0.0397657777617224 	6.27753084794257e-16
7 	1.7027752979414 	-2.54787510534094e-18 	0.819839676605813 	0.0392440287617658 	1.73243598599649e-17
7 	1.73884798288128 	2.65629532258949e-18 	0.829644971736023 	0.0386358562591773 	-8.16650049618108e-20
7 	1.81031024575141 	1.04083408558608e-17 	0.848255565310708 	0.0373474251014481 	-1.29969370458077e-19
7 	1.88432958821743 	1.04083408558608e-17 	0.865940709061224 	0.0358711261668411 	2.52356001081507e-20
7 	1.9609947218388 	1.90819582357449e-17 	0.882235485037888 	0.0342257614923881 	5.61613615427375e-21
7 	2.02024009608346 	2.77555756156289e-17 	0.893993257661125 	0.0328311695210996 	4.06757320615854e-22
7 	2.06000503604194 	3.46944695195361e-18 	0.90160833006446 	0.0318497911242436 	0
7 	2.09836474743796 	3.46944695195361e-18 	0.908305755239167 	0.0308844936861106 	0
7 	2.13536888877258 	3.46944695195361e-18 	0.91440748727294 	0.0299288819529899 	0
7 	2.17106536369585 	3.46944695195361e-18 	0.919964347185275 	0.0289877963912693 	0
7 	2.20550038302044 	3.46944695195361e-18 	0.925020957866242 	0.028062640001649 	0
7 	2.23871852454378 	3.46944695195361e-18 	0.929616893946187 	0.0271553400017303 	0
7 	2.27076279075613 	0 	0.933787247440256 	0.0262675152474434 	0
7 	2.30167466450941 	-3.46944695195361e-18 	0.937563058898469 	0.0254003574985183 	0
7 	2.33149416271872 	-6.93889390390723e-18 	0.940971726648369 	0.024554722639525 	0
7 	2.36025988816627 	-1.38777878078145e-17 	0.944037374795783 	0.0237311876210873 	0
7 	2.38800907947441 	-2.08166817117217e-17 	0.946781178165703 	0.0229300909082393 	0
7 	2.41477765931295 	-2.08166817117217e-17 	0.94922164823305 	0.0221515688844307 	0
7 	2.44060028090272 	-1.73472347597681e-17 	0.951374883649354 	0.0213955881089684 	0
7 	2.46551037287586 	-1.90819582357449e-17 	0.953254788693744 	0.0206619732568401 	0
7 	2.48954018255081 	-2.08166817117217e-17 	0.954873262858033 	0.0199504311757146 	0
7 	2.512720817678 	-1.73472347597681e-17 	0.956240364585092 	0.0192605715051383 	0
7 	2.53508228671037 	-1.38777878078145e-17 	0.957364451946158 	0.0185919242512339 	0
7 	2.55665353765073 	-1.38777878078145e-17 	0.95825230280117 	0.017943954681034 	0
7 	2.57746249552636 	-1.38777878078145e-17 	0.958909216752946 	0.0173160758728104 	0
7 	2.59753609853934 	-1.38777878078145e-17 	0.959339100989799 	0.0167076592291638 	0
7 	2.61690033293929 	-1.73472347597681e-17 	0.959544541917044 	0.0161180432305334 	0
7 	2.63558026666389 	-2.08166817117217e-17 	0.959526864306986 	0.0155465406795033 	0
7 	2.65360008179049 	-2.08166817117217e-17 	0.95928617954797 	0.0149924446613888 	0
7 	2.67098310584102 	-2.42861286636753e-17 	0.9588214244414 	0.0144550334244416 	0
7 	2.68775184198056 	-2.77555756156289e-17 	0.958130391874365 	0.0139335743637785 	0
7 	2.70392799814879 	-2.77555756156289e-17 	0.957209754574061 	0.0134273272767939 	0
7 	2.71953251516198 	-2.77555756156289e-17 	0.956055083014574 	0.0129355470442104 	0
7 	2.73458559382185 	-2.42861286636753e-17 	0.954660858377837 	0.0124574858797486 	0
7 	2.74910672106653 	-2.08166817117217e-17 	0.953020481244587 	0.0119923952822342 	0
7 	2.76311469519732 	-2.08166817117217e-17 	0.951126276377239 	0.0115395278162295 	0
7 	2.776627650214 	-2.42861286636753e-17 	0.948969493517088 	0.0110981388402898 	0
7 	2.78966307929018 	-3.12250225675825e-17 	0.946540303507867 	0.0106674882948243 	0
7 	2.80223785741904 	-3.46944695195361e-17 	0.943827788223094 	0.0102468426533817 	0
7 	2.81436826325886 	-3.81639164714898e-17 	0.940819921654689 	0.00983547713092214 	0
7 	2.82607000020647 	-3.81639164714898e-17 	0.937503538045718 	0.00943267822934334 	0
7 	2.83735821672613 	-3.12250225675825e-17 	0.933864281042524 	0.00903774668335014 	0
7 	2.8482475259599 	-2.77555756156289e-17 	0.929886525410472 	0.00865000084825264 	0
7 	2.85875202464506 	-2.77555756156289e-17 	0.925553259793258 	0.00826878054549009 	0
7 	2.86888531136304 	-2.77555756156289e-17 	0.920845915153123 	0.00789345135247559 	0
7 	2.87866050414343 	-2.77555756156289e-17 	0.915744118700634 	0.00752340929249264 	0
7 	2.88809025744591 	-3.29597460435593e-17 	0.910225346988199 	0.00715808585070595 	0
7 	2.89718677854204 	-3.81639164714898e-17 	0.904264443890848 	0.00679695321772646 	0
7 	2.90596184331818 	-4.16333634234434e-17 	0.897832958603478 	0.00643952964734573 	0
7 	2.91442681151997 	-4.5102810375397e-17 	0.890898244201205 	0.0060853848153963 	0
7 	2.922592641458 	-4.5102810375397e-17 	0.883422236556748 	0.00573414508785871 	0
7 	2.93046990419394 	-4.5102810375397e-17 	0.875359802942538 	0.00538549865410914 	0
7 	2.93806879722526 	-4.16333634234434e-17 	0.866656503671765 	0.00503920056171094 	0
7 	2.94539915768638 	-3.46944695195361e-17 	0.857245539051075 	0.00469507780982586 	0
7 	2.95247047508334 	-3.12250225675825e-17 	0.847043541495347 	0.00435303483037634 	0
7 	2.9592919035784 	-3.12250225675825e-17 	0.835944690734598 	0.00401305992656842 	0
7 	2.96587227384055 	-3.12250225675825e-17 	0.823812328290003 	0.00367523357112192 	0
7 	2.97222010447726 	-3.46944695195361e-17 	0.81046673274106 	0.00333973996410485 	0
7 	2.97834361306218 	-3.46944695195361e-17 	0.795666811185458 	0.00300688423019851 	0
7 	2.98425072677325 	-3.12250225675825e-17 	0.779081808105314 	0.00267711944495637 	0
7 	2.98994909265477 	-3.12250225675825e-17 	0.760245986477692 	0.00235108750884926 	0
7 	2.99544608751689 	-3.12250225675825e-17 	0.738482968149043 	0.00202967214010028 	0
7 	3.00074882748522 	-2.94902990916057e-17 	0.712773291427815 	0.0017141215359256 	0
7 	3.00586417721304 	-3.12250225675825e-17 	0.681509905007063 	0.00140665374490996 	0
7 	3.01079875876789 	-3.46944695195361e-17 	0.642021267809963 	0.0011116005410695 	0
7 	3.01555896020418 	-3.46944695195361e-17 	0.589606641232033 	0.000830174965501715 	0
7 	3.02015094383281 	-3.46944695195361e-17 	0.515776950758537 	0.000545784393011192 	0
7 	3.02458065419861 	-3.46944695195361e-17 	0.407605188872265 	0.00028804725638993 	0
7 	3.02885382577582 	-3.12250225675825e-17 	0.25923758673546 	0.000130420547961985 	0
7 	3.03297599039165 	-3.46944695195361e-17 	0.0885525449086199 	3.01979853064885e-05 	0
