/*--------------------------------*- C++ -*----------------------------------*\
  =========                 |
  \\      /  F ield         | OpenFOAM: The Open Source CFD Toolbox
   \\    /   O peration     | Website:  https://openfoam.org
    \\  /    A nd           | Version:  7
     \\/     M anipulation  |
\*---------------------------------------------------------------------------*/
FoamFile
{
    version     2.0;
    format      ascii;
    class       volScalarField;
    location    "5000";
    object      nut;
}
// * * * * * * * * * * * * * * * * * * * * * * * * * * * * * * * * * * * * * //

dimensions      [0 2 -1 0 0 0 0];

internalField   nonuniform List<scalar> 
15600
(
1.63538579680777e-07
1.49649307774593e-07
8.79929227534511e-08
3.47658842533679e-08
8.43597187746806e-09
5.15348041551403e-09
5.37898059694518e-09
4.31291597419453e-09
3.69291526806748e-09
3.60314655082579e-09
3.7842716890545e-09
4.18808173456916e-09
4.877658464465e-09
5.98260218043645e-09
7.72819461622163e-09
1.03658290950582e-08
1.4243080232617e-08
1.98449967986473e-08
2.7880586889062e-08
3.92270416995703e-08
5.48228588160519e-08
7.55055455207065e-08
1.02032192725903e-07
1.34475264850998e-07
1.71206275413515e-07
2.09508853367829e-07
2.45251669374014e-07
2.7416222766111e-07
3.41521868953762e-07
4.35000645817912e-07
5.1466359351491e-07
5.84209783677502e-07
6.47696976461968e-07
7.05807992798467e-07
7.57846161072888e-07
8.03934397328456e-07
8.44698655781777e-07
8.80219601959235e-07
9.10645536774975e-07
9.36152576881528e-07
9.56962763716408e-07
9.73337169432618e-07
9.85572436020009e-07
9.93988245458998e-07
9.98919074565024e-07
1.00070326461551e-06
9.99675569816155e-07
9.96159799950615e-07
9.90463939254519e-07
9.82876139993171e-07
9.73662524972809e-07
9.63065836789574e-07
9.51305024855832e-07
9.38575646152209e-07
9.25050509174011e-07
9.10881172955222e-07
8.96199770187756e-07
8.81116815173125e-07
8.65729668641786e-07
8.50121472433215e-07
8.3435886590996e-07
8.18499202366868e-07
8.02588333608178e-07
7.8666064623656e-07
7.70742399664941e-07
7.54852136678804e-07
7.39001363416919e-07
7.23195148032597e-07
7.07432658733613e-07
6.91707458203874e-07
6.76007858630419e-07
6.60316838666835e-07
6.44612304819104e-07
6.28866423255833e-07
6.13046033588633e-07
5.9711084197866e-07
5.81014666016097e-07
5.64701125089034e-07
5.48107415034837e-07
5.31154706816597e-07
5.13768562241272e-07
4.95701100604064e-07
4.77196413983193e-07
4.58170729377401e-07
4.38382984916865e-07
4.17452458132118e-07
3.95143774082012e-07
3.70905780238617e-07
3.44463927921315e-07
3.14994350046807e-07
2.81391419120509e-07
2.38838573307662e-07
2.14671605269214e-07
2.32673456599975e-07
2.46940921418106e-07
2.58388095305962e-07
2.61345048011671e-07
2.5791609663741e-07
2.50591835272259e-07
2.42604813690708e-07
2.33171818534398e-07
2.23780167558147e-07
2.14525533247972e-07
2.05498096063252e-07
1.9353454209528e-07
1.79376616708574e-07
1.64088090699524e-07
1.48493778671118e-07
1.33665023377478e-07
1.21229250133511e-07
1.14285275096967e-07
1.12751729221259e-07
1.18234913346443e-07
1.3545880744942e-07
1.69268993414536e-07
2.15203514745118e-07
2.10429726379819e-07
1.75897530687233e-07
1.44368702400483e-07
1.55053146085694e-07
1.31227239816125e-05
1.2031691805665e-05
6.99055777825142e-06
2.93359495282566e-06
7.78391891506968e-07
4.82481122256431e-07
5.0467264370684e-07
4.06518196956226e-07
3.46260121092896e-07
3.36238488492405e-07
3.5162688568974e-07
3.87517829672733e-07
4.49259136321557e-07
5.47956333049479e-07
7.03383600410207e-07
9.37504228544988e-07
1.28144638549561e-06
1.77631027158107e-06
2.48263717922119e-06
3.47594559826442e-06
4.83375791360419e-06
6.60834404054692e-06
8.84485345990232e-06
1.15368261590906e-05
1.45182401487934e-05
1.75258615796752e-05
2.01173108100119e-05
2.17568563756806e-05
2.64182343487934e-05
3.3120979442818e-05
3.86910387918385e-05
4.3407316341564e-05
4.76351567497157e-05
5.14236340554435e-05
5.47459739489705e-05
5.76368265159209e-05
6.01921332873347e-05
6.24251956312177e-05
6.43516473537513e-05
6.59861266307621e-05
6.7344006354052e-05
6.84414054300983e-05
6.92953888567768e-05
6.99235896728755e-05
7.03440208469689e-05
7.05746883851062e-05
7.06333448572052e-05
7.05372050469689e-05
7.03027565316134e-05
6.99455863823004e-05
6.948028064865e-05
6.89203508467401e-05
6.82781977648936e-05
6.75651106714923e-05
6.67912753582624e-05
6.59658248526603e-05
6.50969219031662e-05
6.41915650431498e-05
6.3256086780268e-05
6.22960771877336e-05
6.1316177736829e-05
6.0320495099549e-05
5.93124715931489e-05
5.82948673626605e-05
5.72699333691661e-05
5.62394296027573e-05
5.52046559342392e-05
5.41664796829697e-05
5.31253605888837e-05
5.2081361949548e-05
5.10341652996748e-05
4.99830587452462e-05
4.89269447567739e-05
4.78642907010398e-05
4.67931422216712e-05
4.57109984559772e-05
4.46148693026125e-05
4.35009845064365e-05
4.23649947053556e-05
4.12013277963513e-05
4.00045732722433e-05
3.87501855072901e-05
3.74488030212303e-05
3.61012669095416e-05
3.46926756255739e-05
3.31932082559467e-05
3.15839740326348e-05
2.98185495582147e-05
2.78730279974217e-05
2.56746507797216e-05
2.31206755093574e-05
1.98201133322011e-05
1.80832588881163e-05
1.9897381071039e-05
2.1128197090302e-05
2.20819791486436e-05
2.23408975045408e-05
2.20885698616184e-05
2.15237388822831e-05
2.08856682517602e-05
2.00957240925261e-05
1.92891261227595e-05
1.84751057870541e-05
1.76563769279837e-05
1.65840495199997e-05
1.5360609165403e-05
1.40639094706723e-05
1.27502970098589e-05
1.15082792262007e-05
1.04770241961251e-05
9.88973044724369e-06
9.69158989059508e-06
1.00267578780519e-05
1.12054697171661e-05
1.33954712323085e-05
1.59411290598998e-05
1.46184182316871e-05
1.22251213035568e-05
1.05631449550379e-05
1.20993179132289e-05
9.7600259018739e-05
9.47023734005998e-05
7.04937293110486e-05
3.76324930800051e-05
1.20310089354162e-05
6.84933843407217e-06
7.28795536589454e-06
5.96146535251851e-06
5.08219439385517e-06
4.9143680579486e-06
5.1200577502207e-06
5.61427184416803e-06
6.45987435827729e-06
7.80846587320785e-06
9.91544791682492e-06
1.30366508896906e-05
1.74909912731587e-05
2.36712378457779e-05
3.20565572534078e-05
4.30625671985798e-05
5.68874130371896e-05
7.34221929044377e-05
9.22759015670251e-05
0.000112535606184962
0.000132688027884837
0.000151284822705716
0.000167558389241299
0.000184324691624181
0.000213604129975429
0.000246213741470166
0.000271672003822765
0.00029278061974198
0.000311642927371438
0.000329161099315229
0.000344944133724588
0.000358752285882267
0.000370938831550937
0.000381606082331249
0.000390851813558835
0.000398759846810426
0.000405410533362697
0.000410882301422405
0.000415253849112683
0.000418603552503335
0.000421009428346214
0.000422548159628071
0.000423294529793142
0.000423320631424767
0.000422695351305416
0.00042148386581355
0.000419747362136514
0.000417542828234716
0.000414922954010338
0.000411936141234778
0.000408626546610685
0.000405034235220597
0.000401195498160851
0.000397142128201956
0.00039290316631279
0.00038850486558753
0.000383969636040531
0.000379317542547108
0.000374565942221322
0.000369729414778376
0.000364820309071124
0.000359848824062983
0.000354823109547394
0.000349749350368847
0.000344631837696928
0.000339472985829892
0.000334273353409093
0.00032903156124679
0.000323744265851293
0.000318405910292025
0.000313008678669681
0.000307541918224116
0.00030199218601314
0.000296341961783789
0.000290570097171861
0.000284649044083586
0.000278549886742614
0.000272177731796774
0.000265811481520923
0.000259294186849702
0.000252479137897707
0.000245222642090513
0.000237392795257318
0.000228774608467539
0.000219131763683873
0.000208174244879694
0.000194885572898555
0.000177064072368288
0.000164932802605785
0.000171015931569224
0.000179661425595639
0.000186352847328909
0.000188583742523
0.000187448911994562
0.000184222205429008
0.000180261059102013
0.000175094320650377
0.00016948021905393
0.000163544636414402
0.000157269026572012
0.000149101491932194
0.000139726219073898
0.000129728638136017
0.000119494119076942
0.000109614466844906
0.000101163765950991
9.58718259754498e-05
9.32483882955307e-05
9.42360686593893e-05
0.000100637650661307
0.000112783256354255
0.000124425351297326
0.000116970962559013
0.000100778371127936
8.86638146792343e-05
9.13456137085441e-05
0.000250846834304208
0.000254363008434582
0.000206594803260584
0.000125717807113531
5.83386362362068e-05
3.8189530333835e-05
4.15017907344249e-05
3.52385416075081e-05
3.04643848399991e-05
2.93776390711386e-05
3.03185526809211e-05
3.26643497246009e-05
3.66513627740574e-05
4.28584283050816e-05
5.22497081425459e-05
6.55519834398491e-05
8.34868245376157e-05
0.000106699991657384
0.000135896343340652
0.000171280780486055
0.000212273796126914
0.000257696542102881
0.000306083309603202
0.000354876741244341
0.000400609051584645
0.00044101432584186
0.000477764113753547
0.000521230389703545
0.000590462667211079
0.000661452199397088
0.000716223701587509
0.000762093074745283
0.000803098886509211
0.000840781657646848
0.000874113894528302
0.000903258388160926
0.000928859858978036
0.000951184947224037
0.000970473943317482
0.000986929163185956
0.00100073907816504
0.00101208267786618
0.00102113500297634
0.00102806687369195
0.00103304541124206
0.00103623269721421
0.00103778504416112
0.00103785182291859
0.00103657472334495
0.00103408702303175
0.00103051323658067
0.00102596887986242
0.00102056042137682
0.00101438541001065
0.0010075326828485
0.00100008269819131
0.000992108183433044
0.000983673051856211
0.000974835656552608
0.000965648531609542
0.000956156847434684
0.000946400815127336
0.000936415306122656
0.000926229812073847
0.000915869317944638
0.000905354511502992
0.000894701980370786
0.000883924365874181
0.00087303048236469
0.00086202533314705
0.000850910113787735
0.000839682028505972
0.00082833416829772
0.000816855000030543
0.000805228141284778
0.000793431226131221
0.000781435711889172
0.000769204441665531
0.000756691904237679
0.000743839034641209
0.000730581586469589
0.000716751360164908
0.000702680784107161
0.000688445721943465
0.000673581442683716
0.000657753534791093
0.000640658292983427
0.000621842292382186
0.000600755791654782
0.000576685887730207
0.000547811075042328
0.000508700825829324
0.000480306784355937
0.000492055049616143
0.000515316051761901
0.000534759408101926
0.000543899314658494
0.000544774734785377
0.000540472085779329
0.000533950712994535
0.000524016977757275
0.000512099076288554
0.000498610348271128
0.000483411249112526
0.00046278984110537
0.00043839832807749
0.000412070510306363
0.000384956677267116
0.000358583252238472
0.00033600566160585
0.000322110198047165
0.000315424318975028
0.000318149240053073
0.000335239542868599
0.000367743869335023
0.000398255287873372
0.000371661357478564
0.000310222092994453
0.000251335755198324
0.000238616732922226
0.000465091895182919
0.000474989069253434
0.00039791334473245
0.000244124008516551
0.000135986823181964
0.000111281521840529
0.000128294261506073
0.000115511930510941
0.000102493453888116
9.88845415967845e-05
0.000100810295451373
0.000106108413551277
0.000115212374552841
0.000129312337925876
0.000150518237077456
0.000180007573155214
0.000218539777030591
0.000266341745862027
0.000323822106330438
0.000390340835742544
0.000463960905185811
0.000542240977167176
0.000622895276694623
0.000701836782223444
0.000773838973560393
0.000836842592879076
0.000896548896542021
0.000971087088562199
0.00108779068970168
0.00120594784950076
0.00129699330531464
0.00137333834607354
0.00144117396155556
0.00150205049528181
0.00155550915527905
0.0016022657464983
0.0016432437455671
0.00167890779150033
0.00170966586798771
0.00173586094524977
0.00175780995663119
0.0017758113071441
0.00179015404793619
0.00180111810817843
0.00180897538286354
0.0018139880760082
0.00181640776825634
0.00181647387074194
0.00181441263904279
0.00181043622556558
0.00180474226399069
0.00179751363450315
0.00178891849942451
0.00177911058326936
0.00176822959173421
0.00175640187494978
0.00174374099485406
0.00173034736406127
0.0017163120474506
0.00170171663592046
0.00168663153425941
0.00167111894892724
0.00165523269628853
0.00163901828669784
0.00162251405181056
0.00160575153165658
0.00158875579132195
0.00157154565679018
0.00155413388445018
0.00153652717774951
0.001518726154973
0.00150072505556089
0.00148251147388314
0.0014640655734619
0.00144535957348666
0.00142635606268636
0.00140700732636676
0.00138725184928743
0.00136701385044508
0.001346195941782
0.00132468889108172
0.00130225752262018
0.00127912103193018
0.00125549216391982
0.00123080547650088
0.00120446758690555
0.00117593295294143
0.00114443164922234
0.00110900924937517
0.00106831947443963
0.00101974421154533
0.000953828586513695
0.000905153109821774
0.000923989432957562
0.00096655057818195
0.00100560331814368
0.00102866368505677
0.00103756502672881
0.00103736097498759
0.00103277383224059
0.00102183937262152
0.00100628554399747
0.000986885744481029
0.000963270769072691
0.000929317818480588
0.000887601485226167
0.000841853428326074
0.000794527386044107
0.000748452202385905
0.0007094538746724
0.000686829593982559
0.000678234286970018
0.00068692270349293
0.000721540174147826
0.00078428828332274
0.000843646427906655
0.000792247019094158
0.000661360188216493
0.000515616067141741
0.00045968396186417
0.000747991702462755
0.00075483916904522
0.000645890689861655
0.000390914664380465
0.000230126403403342
0.000208401062564836
0.000262633719835556
0.000255120452604972
0.000233371196018705
0.000226107907672752
0.000228492533614645
0.000236146749487003
0.000249792780937803
0.000271611639615428
0.000305446737212294
0.000352941655962526
0.000414391082101476
0.000489041724865874
0.000576714765672199
0.00067567650494416
0.000782524545382138
0.000893729333976213
0.00100643269260458
0.00111515467586249
0.00121336292958626
0.00130012306966126
0.00138582496123496
0.0014965644995003
0.00166626186475003
0.00183662031805518
0.00196841269880333
0.0020790846466311
0.00217674809037011
0.00226315745960346
0.00233887237911082
0.00240515043176926
0.00246319103456764
0.00251367621965202
0.00255719588093935
0.00259424751507028
0.00262528965017949
0.00265075270761467
0.00267105177608883
0.00268658745790929
0.00269774745243891
0.00270490460752117
0.00270841572540545
0.00270861963595127
0.00270583592889276
0.00270036378279807
0.00269248147140189
0.00268244613340397
0.00267049390043419
0.00265684033707406
0.00264168117779707
0.00262519303567724
0.00260753436184323
0.00258884578086829
0.00256925410442806
0.00254887251991688
0.00252779897238459
0.0025061195017536
0.00248390835785847
0.0024612282807385
0.00243813183571504
0.0024146620042452
0.00239085263790964
0.00236672878589514
0.0023423069161116
0.002317594934512
0.00229259210489309
0.00226728864102021
0.00224166526099823
0.00221569212218024
0.00218932794038833
0.00216251776733552
0.00213519166105719
0.00210726022373365
0.00207861300997758
0.00204910936738032
0.00201858752723454
0.00198674819398934
0.00195365554246097
0.00191948641594513
0.00188368579338664
0.0018454218379467
0.00180386478363974
0.00175788188860534
0.00170604544982152
0.00164628564556322
0.00157509182983849
0.00147875909259342
0.00140565536011774
0.0014289303582729
0.00149229730815971
0.00155567064107832
0.00159898371985795
0.00162221435742764
0.00163192644555333
0.00163453274750419
0.00162741544381284
0.00161219888185332
0.00158994139330719
0.00155992016915243
0.00151365355808535
0.001454437316619
0.00138831276957701
0.00131956608793037
0.00125271010519133
0.00119687950433299
0.00116646221154719
0.00115874197574896
0.00117762096728708
0.00123492361292748
0.00133385026875054
0.0014275319223922
0.00135178767266993
0.00114107063372806
0.000889391689465684
0.00076670694216958
0.0011021114035858
0.00109446885908731
0.000952736414405817
0.000575728193851858
0.000338081388073859
0.000308060529864983
0.000413706744327158
0.000439714951856672
0.000415820256214696
0.000405600681248218
0.000408065026886308
0.00041685142000993
0.000433253557606268
0.000461061372223751
0.000506499944704974
0.00057177559180772
0.000656332168874123
0.000758128031409773
0.000876207663555246
0.00100759142765005
0.0011473980684794
0.00129118350377374
0.00143561789241542
0.00157401138034385
0.00169911950873405
0.00181185569932426
0.00192754120430461
0.00207988479717159
0.00230637081142353
0.00253150587932228
0.00270695734784399
0.00285470506581462
0.00298433778826907
0.00309827692132798
0.00319810954681467
0.00328559594428353
0.00336221529392018
0.00342887996020534
0.00348637145775199
0.00353535188699369
0.0035764308214851
0.00361017979680751
0.0036371485468546
0.00365786659915825
0.00367284530548897
0.00368257565305165
0.0036875267818564
0.00368814368960071
0.00368484566637684
0.00367802490011759
0.0036680458942625
0.003655245241558
0.00363993184297528
0.00362238752859592
0.00360286815296658
0.00358160401458275
0.00355880197805703
0.00353464592406768
0.00350930102798674
0.00348291433129662
0.00345561339698528
0.00342750984537862
0.00339869983543903
0.00336926459112996
0.00333927191595341
0.00330877699774208
0.003277823011316
0.00324644154405285
0.00321465286889633
0.00318246596706002
0.00314987839097894
0.00311687573907137
0.00308343100692118
0.00304950323976357
0.0030150362318895
0.00297995577848018
0.00294416757365694
0.0029075518472481
0.00286996038645227
0.00283120580661371
0.00279106835884201
0.00274918461709124
0.00270545661243644
0.0026599361355228
0.00261207377454474
0.00256084010929542
0.00250511019126533
0.00244336965750479
0.00237368083033924
0.00229322647826961
0.00219755275083127
0.00206885635193722
0.00196781903010483
0.00199067576922229
0.00207360620907345
0.00216367513212309
0.00223206520372182
0.00227524002099982
0.00230040640707975
0.00231535582082659
0.00231692675802827
0.0023063040396457
0.0022846520898842
0.00225074139228635
0.00219388173582487
0.00211787939614919
0.00203128937569413
0.00194066457003045
0.00185258603714778
0.00177990216755349
0.00174243987078853
0.0017376777969826
0.00176985361974819
0.00185316545618529
0.00199132108285857
0.00212149194272364
0.00202386750795615
0.00172874519450116
0.00136322954893895
0.00115945450390992
0.00152564235634336
0.00149347668974511
0.00131682082053657
0.00080998703914889
0.000455136176190857
0.000404065502927003
0.000553689916708409
0.000647293085679875
0.000636147491150987
0.000626053938702649
0.000629116096074666
0.000638335383039509
0.000655968039294594
0.000688068887686468
0.00074382924010918
0.000826190020859481
0.000933517895936815
0.00106230686981967
0.00121064671434389
0.00137420116544602
0.00154665261122373
0.00172279718199187
0.00189890391856087
0.00206733895201733
0.00222073289561903
0.00236231830764779
0.00251222868785895
0.00271082977025618
0.00299639316215815
0.00327752691094294
0.00349858906167233
0.00368534987920182
0.00384865185862281
0.00399179162090753
0.00411732090476337
0.00422746575371644
0.00432398975173522
0.00440804392865752
0.00448060795000206
0.00454251563736721
0.00459453408595038
0.00463738209353588
0.00467174969330799
0.00469830066272323
0.00471767499184665
0.00473048653843356
0.00473732126782805
0.00473873462593923
0.00473524968355511
0.00472735552931625
0.00471550659536558
0.00470012243460377
0.00468158802346749
0.00466025467889696
0.00463644105537098
0.00461043394954409
0.0045824912388447
0.0045528424296458
0.00452169315983625
0.00448922618840061
0.00445560044412964
0.00442095466464265
0.00438540826514993
0.00434906214137792
0.00431200034534884
0.0042742911029558
0.00423598757009243
0.00419712835909777
0.00415773786230007
0.00411782627710173
0.00407738940535465
0.00403640800765822
0.00399484693583567
0.00395265350024176
0.00390975571694358
0.00386605904031236
0.00382144341968485
0.00377575707404736
0.00372881197488966
0.00368037171599048
0.00363015495387724
0.00357773279934955
0.003522850315417
0.00346539062132686
0.00340477525427229
0.00333980353124657
0.00326906263113599
0.00319065458107237
0.00310211801130346
0.00299989407151222
0.00287856471349679
0.00271659519818973
0.00258506900184908
0.00260228419788407
0.00270177397246654
0.00281894287460118
0.00291564254721115
0.00298340447883134
0.00302901124575151
0.0030611190675704
0.003076048225136
0.0030742677333829
0.00305681013753203
0.00302176182447105
0.00295640100336226
0.00286486457923482
0.00275827793238863
0.00264578002069014
0.00253637685668185
0.00244694705650392
0.00240290711610739
0.00240243725684212
0.00244990819176565
0.00256108248306892
0.00273957396810448
0.0029063775776681
0.00278959515181559
0.00240913545803208
0.00192574629330302
0.00163206194697408
0.00201544862756671
0.00195076795513419
0.00173490523724783
0.00110369654291641
0.000587725650646993
0.000496295378376782
0.000668225228834922
0.000855664365723855
0.000880883459888072
0.000877153441550133
0.000882605577846641
0.000892524890822914
0.000910634373176276
0.000945841122114589
0.00101080627952447
0.00110947065741674
0.0012390611784688
0.00139452008414888
0.00157283053793852
0.00176824054772763
0.00197307725092338
0.00218150951574627
0.00238948601998274
0.00258873666057288
0.00277225931756451
0.00294582796891896
0.00313398059101544
0.00338247516641349
0.00372820836318808
0.00406568000519238
0.00433359247118133
0.00456070836560516
0.00475898201297518
0.00493265991512676
0.00508517128917921
0.00521917725239506
0.00533672851414586
0.00543921935143391
0.00552783140135347
0.00560357466522367
0.00566737755316963
0.00572010956573554
0.00576260395913533
0.00579566135651359
0.00582005268689868
0.00583651679968606
0.00584575847554207
0.00584844552807859
0.00584520668791005
0.00583662980624944
0.00582326109380703
0.00580560490256651
0.00578412413286966
0.00575924146832502
0.00573133981449901
0.00570076446980704
0.0056678260083666
0.0056328012104907
0.00559593769890777
0.00555745535544208
0.00551754583581189
0.00547637625304949
0.00543409042878463
0.00539080998610833
0.00534663617312597
0.00530165108377376
0.00525591856576684
0.00520948484670001
0.00516237890469055
0.00511461249287965
0.00506617986955627
0.00501705702862866
0.00496720060380719
0.00491654594840196
0.00486500491283819
0.0048124620618899
0.00475877085551443
0.00470374658450631
0.00464716024108111
0.00458872509283534
0.00452809612859129
0.00446477737302756
0.00439836608884393
0.00432856178422276
0.0042547088064871
0.00417545729904205
0.00408911884744355
0.00399341998856935
0.00388537809356507
0.00376071368627312
0.00361304068016754
0.00341757002020233
0.00325390488926806
0.0032606706039969
0.00337277808501949
0.00351593062967417
0.00364269884541059
0.00373863198266473
0.00380898590683778
0.00386262610176046
0.00389527358892973
0.00390644025909172
0.00389675773605938
0.00386343703359722
0.00379190210164124
0.00368647643866429
0.00356081188974722
0.00342684340940853
0.00329630993928388
0.00319035678007884
0.00313999685025131
0.00314451760317983
0.00320829104553631
0.00334792809746792
0.0035664146810642
0.00376877503255996
0.00363550282912682
0.00317120793711138
0.00256835701040731
0.00217866189733834
0.0025686124628234
0.00246510958607781
0.00220402802673942
0.0014634520600521
0.00074327804784768
0.0005902244632231
0.000757725263329379
0.0010450655426069
0.00113706365300026
0.00115022755029088
0.00116147820213849
0.00117348934542577
0.00119221725407758
0.0012299236410512
0.00130318571174973
0.00141732380700725
0.00156852984586403
0.00175018820915379
0.00195806273260175
0.00218497114646331
0.00242198410667489
0.00266275382164553
0.00290300263710923
0.00313412978794804
0.00334986469682011
0.00355853199167475
0.00378847318099984
0.00408948886264023
0.00449552716912821
0.00488900170423986
0.0052044013889132
0.00547270834195276
0.00570687074704791
0.00591208540512312
0.00609256625969818
0.00625138369773573
0.00639087526662217
0.00651267981389096
0.00661818226990119
0.00670857076261612
0.00678493628738611
0.00684829992467594
0.00689963849080467
0.00693988945838766
0.00696995444003091
0.00699069690635485
0.00700294005127694
0.00700746370591344
0.00700500201423619
0.0069962414822599
0.00698182014446845
0.00696232735325626
0.00693830441989698
0.00691024561238454
0.00687859879142315
0.00684376860916823
0.00680611916423741
0.00676597541198691
0.00672362787011063
0.00667933445046601
0.00663332047427325
0.00658578236491253
0.00653688925862194
0.00648678438561859
0.00643558702907968
0.00638339393314695
0.00633028035489919
0.00627630078469585
0.00622148935808045
0.00616585987465473
0.0061094054535626
0.00605209763638584
0.00599388505768845
0.00593469123567951
0.00587441187382702
0.00581291056614645
0.00575001409338045
0.00568550453435125
0.00561911150803837
0.00555049751212177
0.00547925310163072
0.00540481392624878
0.00532663954663804
0.00524424510943201
0.00515685594141948
0.00506298529118884
0.00496068387010945
0.00484731738259587
0.00471939599940011
0.00457194982833309
0.00439763372816965
0.0041689256373251
0.00397225230731259
0.00396445542334144
0.00408486826819916
0.00425178622286218
0.00440909214417873
0.00453571808902771
0.00463437419813481
0.00471340364450125
0.0047677459191171
0.00479572881412792
0.0047972995784749
0.00476859879172253
0.00469336332772504
0.00457599025891553
0.00443254457088008
0.00427786918065939
0.00412668147145107
0.00400454533245377
0.0039479537826473
0.00395759319991887
0.00403775351246562
0.00420532714348985
0.00446234915921513
0.00469853607916621
0.00455117268404872
0.00400643265170673
0.00328471123126733
0.00279469802510564
0.00318280995329019
0.00303538629000236
0.00272227102982734
0.0018921287215274
0.000930431914053498
0.000690305471678522
0.000831282051082474
0.00120106506031749
0.0013913429206789
0.0014373290892937
0.00145986716289658
0.00147661380182909
0.00149706013403455
0.00153727173276107
0.00161814919584045
0.00174689165336576
0.00191892883405144
0.00212616756340692
0.00236308636593232
0.00262109279131936
0.00289010437960453
0.00316334749099488
0.00343641614671913
0.00370065108981791
0.00395074656182445
0.0041974204078017
0.00447210855812935
0.00482734466689923
0.00529303505259466
0.00574160715012386
0.00610458199096421
0.0064144498079749
0.00668503524402873
0.00692244299381349
0.00713158092016341
0.00731590559028798
0.00747803772269313
0.00761985907462627
0.00774295677255102
0.0078486965715369
0.00793833088662695
0.00801303078198382
0.00807391448492114
0.00812205383370894
0.00815847841783208
0.00818417356847309
0.00820007819268434
0.0082070816037323
0.00820602105988687
0.00819767970507798
0.0081827856859114
0.00816201197950289
0.00813597734068551
0.00810524637099975
0.00807033172040234
0.00803169712891863
0.0079897601741757
0.00794489412509197
0.00789743266829083
0.00784767212622976
0.0077958719758642
0.00774225853013834
0.00768702687238175
0.00763034251094675
0.00757234345990645
0.00751314181292629
0.00745282492578084
0.00739145622129849
0.00732907563408268
0.00726569961660825
0.00720132071444467
0.00713590653741502
0.00706939819420396
0.00700170779326867
0.006932715270816
0.00686226358869721
0.0067901531562643
0.00671613312956491
0.00663989205042812
0.00656104198259074
0.00647910940862536
0.00639346101367233
0.00630342862845553
0.00620834812590663
0.00610729951210861
0.00599865993424117
0.00588023542181872
0.00574904985152986
0.00560112872456878
0.00543084825290447
0.00522992507915581
0.00496862799512729
0.00473873469939076
0.00471303126090319
0.00483743496227222
0.00502515664491442
0.00521238498552988
0.00537120732570169
0.00550093154730468
0.00560863215717333
0.00568820271659122
0.00573656128787897
0.00575268326735996
0.00573144837201895
0.00565505966977055
0.00552789891053201
0.00536828195465843
0.00519398503658559
0.00502287790918763
0.00488500087112376
0.00482209341585081
0.0048364186615035
0.00493215413674859
0.00512611210993882
0.00541938279108138
0.00568746483157829
0.00552837554564418
0.00490787675121812
0.00406979969654173
0.00347672519628944
0.00385623956592051
0.00366064639589824
0.00328883076245086
0.00238879196685226
0.0011595209942177
0.000801169949510942
0.000898894176445068
0.00131683763442775
0.00162965843901096
0.00173031440949575
0.00177232884748353
0.00179787923145724
0.00182218596208728
0.00186558707347874
0.00195368158969985
0.00209615632519014
0.00228811841456644
0.00252017522346689
0.00278550807129683
0.00307416246046783
0.00337500426973382
0.00368090663676137
0.00398742554229084
0.00428606362807026
0.00457259370284856
0.00485984809098729
0.00518160407417317
0.00559191944524458
0.00611593851312265
0.0066181897697883
0.00702830869304782
0.00737966035289531
0.00768682015639209
0.00795673349273595
0.00819491604458815
0.00840518829231832
0.00859044700473572
0.0087528123324779
0.00889407008418911
0.00901576070936724
0.00911929448347486
0.00920598844338326
0.00927709766932106
0.00933382348288407
0.00937731838786998
0.00940868452204949
0.00942897160103178
0.00943917378682143
0.00944022717822095
0.00943300769807398
0.0094183301917544
0.0093969484526342
0.00936955584505679
0.00933678529907292
0.00929921276505206
0.00925735980621402
0.00921169655527314
0.00916264396298889
0.00911057850671415
0.00905583475255195
0.00899870635548295
0.00893944971617824
0.00887828619470975
0.00881540401286375
0.00875096043984103
0.00868508350627628
0.00861787329866862
0.008549402835168
0.00847971853198047
0.00840884018747229
0.00833676047094552
0.00826344375752557
0.0081888243267337
0.00811280357430798
0.00803524637535216
0.00795597578175372
0.00787476659454488
0.00779133586468836
0.00770533198526301
0.00761631764527573
0.00752375660743574
0.00742694690466737
0.0073251022093269
0.00721738785692093
0.0071027239323077
0.00697934801395445
0.00684483705858177
0.00669589482377359
0.00652809083842918
0.00633518860391962
0.00610799926588343
0.00581508326399753
0.00555231167811568
0.00550611674401956
0.00563043607047298
0.00583554211269865
0.00605119967158443
0.0062427797418933
0.00640553937347987
0.00654457598582327
0.00665241636516304
0.00672433873735674
0.00675806238965693
0.00674702707550951
0.00667204085723565
0.00653739880514447
0.00636346987462478
0.00617091200057469
0.00598084298705024
0.00582773092521945
0.00575820989802449
0.00577619451992949
0.00588580451570855
0.00610367986067756
0.00643039437282218
0.00672864934687991
0.00656037181604101
0.00586969654527113
0.00491940448435551
0.00422200846108752
0.00458744857319831
0.00434006252254963
0.00390377099652859
0.00294937968530789