/*--------------------------------*- C++ -*----------------------------------*\
  =========                 |
  \\      /  F ield         | OpenFOAM: The Open Source CFD Toolbox
   \\    /   O peration     | Website:  https://openfoam.org
    \\  /    A nd           | Version:  7
     \\/     M anipulation  |
\*---------------------------------------------------------------------------*/
FoamFile
{
    version     2.0;
    format      ascii;
    class       volScalarField;
    location    "5000";
    object      omega;
}
// * * * * * * * * * * * * * * * * * * * * * * * * * * * * * * * * * * * * * //

dimensions      [0 0 -1 0 0 0 0];

internalField   nonuniform List<scalar> 
15600
(
1974.60613735576
1972.648325243
1984.42791022013
2055.78059759582
2222.67690004102
2356.686868098
2378.42128442444
2300.00018532342
2153.97031116953
1966.45861756929
1762.78479607635
1583.64547894744
1435.67966376577
1312.2349065017
1208.29531934702
1120.03744959636
1041.43040276847
963.351277377799
885.918292649371
810.58135114486
738.629427726828
671.777660481123
614.580438156229
568.667823075621
533.493089366932
508.868650769501
494.93483283514
492.061840314983
493.651539705996
493.651534338166
493.651534338173
493.651534338186
493.651534338214
493.651534338152
493.651534338164
493.651534338193
493.651534338173
493.651534338179
493.651534338187
493.651534338166
493.651534338199
493.651534338138
493.651534338171
493.651534338152
493.651534338165
493.651534338172
493.651534338187
493.651534338193
493.6515343382
493.651534338166
493.651534338172
493.651534338165
493.6515343382
493.651534338165
493.651534338146
493.651534338186
493.65153433818
493.651534338194
493.651534338178
493.651534338193
493.6515343382
493.651534338185
493.651534338193
493.651534338201
493.65153433813
493.651534338152
493.651534338177
493.651534338139
493.651534338172
493.65153433818
493.651534338191
493.651534338182
493.65153433818
493.651534338178
493.651534338194
493.651534338178
493.651534338152
493.651534338152
493.651534338159
493.651534338193
493.651534338166
493.651534338166
493.651534338171
493.651534338213
493.651534338157
493.651534338194
493.65153433817
493.651534338157
493.651534338187
493.651534338165
493.651534338165
493.651539706002
492.061840314982
494.934832835202
508.868650769232
533.493089366357
568.667823075228
614.580438156834
671.777660481449
738.629427726959
810.581351143299
885.918292648864
963.351277377646
1041.43040276902
1120.03744959597
1208.2953193011
1312.23490651725
1435.67966381516
1583.6454790092
1762.78479592733
1966.45861764716
2153.97031128258
2300.00018510395
2378.42128451691
2356.68686814436
2222.67690004416
2055.78059756207
1984.42791022399
1972.64832524326
1974.60613735531
419.535763044866
419.850984996933
453.813156121511
461.029525227236
461.185322475814
465.943162348676
468.670522495706
454.195943194032
426.459462287231
389.862831516181
349.989501011565
314.882189206077
285.872617235917
261.923590949619
241.9957212444
225.180786558642
210.001428854581
194.81113421561
179.555730238428
164.420122634935
149.749801911279
136.276233099757
124.780951505458
115.399119361538
108.2289441745
103.411823340804
101.619338122753
105.004237364317
106.01364103207
103.829491005144
102.34132113511
101.409717062933
100.705408539836
100.201727683941
99.8480446955504
99.5841551598631
99.3352216866565
99.1016802076759
98.8831638725032
98.6797342577172
98.4915303320106
98.3186780888368
98.1611912657268
98.0189939529154
97.8918995078272
97.7796396450585
97.6818668814925
97.5981746745213
97.5281045611702
97.4711595990075
97.4268106155276
97.3945038188672
97.3736672269488
97.3637140308721
97.3640504907526
97.3740731396838
97.3931734630895
97.4207670187566
97.456245559764
97.499007807174
97.5484841945792
97.6040608416859
97.6651449772492
97.7311810558626
97.8016083954506
97.8758746161102
97.9534363901147
98.0337595456104
98.1163179046313
98.200594121273
98.286076787998
98.3722634935302
98.4586540784599
98.5447603579796
98.6300890824795
98.7141706892025
98.7965131628568
98.8766837356492
98.9541815039685
99.0286476103241
99.0991724241823
99.1843721829602
99.3036015297814
99.4387220928227
99.5810334805582
99.7402080234588
99.9141818269087
100.128078665299
100.372797190054
100.707010634685
101.168859754861
101.978118162994
100.768911363749
98.2691860086382
100.513490231608
105.018895091707
111.749606509445
120.605142135921
131.653945861704
144.589703490183
158.808083312026
173.86589813953
189.578279600548
205.724974180559
222.55839855633
241.25754006892
262.98032500454
288.599186771837
319.023017551934
355.281936370843
396.103500374499
435.47356808055
467.744515416666
487.220833500434
489.585655299742
477.837076436237
485.545460133372
490.914732398638
476.821395265738
436.266357569798
181.447871211107
174.052089849713
179.183905943109
184.231896209036
170.406799158065
166.664085757724
163.439884788017
159.278195789632
150.56640908111
138.079416523484
124.199064264759
111.829794585088
101.635922294553
93.2109272520973
86.1689595439326
80.1645110568348
74.6862896221705
69.1632657089877
63.6239491163845
58.221429215884
53.1427778554114
48.6038595759957
44.8676699749012
42.0158632402185
40.0402835661738
38.9562028722084
38.7830546963279
39.136815478084
39.1400168727752
38.9559559174812
38.944279919259
39.0090450531982
39.0497326453604
39.004794335709
38.9380199403562
38.8955776322715
38.8575936767761
38.8227435041294
38.7897949079274
38.7581808397638
38.7276317466409
38.6980686929385
38.6694949191522
38.6419734729541
38.6155885812454
38.5904403946734
38.5666303159508
38.5442588086353
38.5234193052559
38.5041972441111
38.4866670385344
38.4708910508978
38.4569189264897
38.4447863708487
38.4345164751893
38.4261170366698
38.4195801677844
38.4149090050304
38.4120690218729
38.4110056422842
38.4116791316242
38.414015968981
38.4179365010505
38.4233631924964
38.430204881525
38.4383619369009
38.4477274843942
38.4581883359115
38.4696253334214
38.4819148967954
38.4949288103521
38.5085373592565
38.5226076167319
38.5370108329181
38.5516161802782
38.5663096232007
38.5809737763929
38.5955377046244
38.6099160609796
38.624137341913
38.6379496533211
38.6562957885722
38.6425860718333
38.6149737789924
38.5802594832596
38.539317055627
38.4908494690564
38.4347637925619
38.3694575662579
38.2821227068388
38.2252815412296
38.1938942410279
37.9697254182867
37.6614527373266
38.009065353714
39.2769699675456
41.4445083327887
44.3817520197917
48.0568163166671
52.3571361147321
57.1881122876671
62.3793701497901
67.8778446016162
73.6403711181648
79.8985572701241
86.8641365703846
94.8465361911396
104.154995922422
115.041781351896
127.604880968924
141.080114146716
154.190393725872
164.875869089521
170.576457814852
170.345166375675
168.100518610174
173.48341030874
186.270155978376
197.72338050334
194.265083423588
104.954481659645
98.602881379413
102.302316144217
115.330728127718
105.258384400501
83.8065254581934
75.7480261519484
73.8840680067456
70.5108888277465
65.024916894009
58.7993590092447
53.2687828117745
48.7541743279758
45.0843419461875
42.0089361626475
39.3032550078451
36.7301107796444
34.1253925364733
31.5470501013501
29.098948023937
26.885466821025
24.9942371062587
23.5019245549838
22.4352085939874
21.8037142261245
21.613085264296
21.798881752868
22.0823753395825
22.1176031012862
22.1038050289416
22.1751659767662
22.2637429890457
22.3240885744161
22.340100990994
22.354651999532
22.3750871323573
22.3939974003044
22.4107153290737
22.4246827171735
22.4357541694947
22.4439490570307
22.4493967079583
22.4522691985355
22.452768319012
22.4511028430743
22.4474851066068
22.442122722762
22.4352171832872
22.4269605982335
22.4175351635223
22.4071115683445
22.3958485176019
22.3838924449412
22.3713770217255
22.3584238455747
22.3451419008838
22.331628958115
22.3179808041022
22.3042680782538
22.2905460526456
22.2768732051495
22.2632880995508
22.2498214528953
22.2365004538391
22.2233423121193
22.2103565496052
22.1975460472597
22.1849079625654
22.1724343749039
22.1601136046721
22.1479307614199
22.1358700781807
22.1239150397625
22.112053230281
22.1002748282548
22.0885838674805
22.076991090145
22.0655417620124
22.0542908984329
22.0433744510252
22.0328046547041
22.024638272497
22.0073599670669
21.9769869831103
21.9424074702038
21.9059371359331
21.8677665044547
21.8287842542881
21.7894960109492
21.747790685707
21.7224843174312
21.7404047124837
21.6539347963662
21.3695756370704
21.3104272800589
21.7473803142851
22.6873129157676
24.0353340836776
25.7406779805017
27.7368181366282
30.0014478353406
32.4572551326187
35.0743854984835
37.8391831773963
40.8902134730747
44.2856449717464
48.1189649967162
52.5089868060276
57.539533405267
63.1528445052824
68.8601050856544
74.2644605518734
78.5364317676663
80.5277589737824
79.9956588246999
79.2118514919223
83.4574205795343
92.5711612567155
105.898575079354
110.551330507449
69.1721267937433
65.394966428062
68.4953371473399
84.9721025363392
85.17519109783
57.0093050027022
43.5240053485938
41.2573250685191
39.4621378152603
36.5607026214481
33.2911021768555
30.4568748099816
28.203112803693
26.4311982675696
24.9466196930368
23.5906103203085
22.2468379699158
20.878458371596
19.5283002306161
18.259052331982
17.1340318733515
16.2006838093376
15.4889772344195
15.0183367673752
14.8088577023464
14.8634525483461
15.1202109271594
15.391723698725
15.4165844427607
15.3781290082962
15.415916265813
15.4713548142251
15.5125193040447
15.5387069916072
15.5659536811771
15.594515080028
15.6207413724494
15.6441775504479
15.6644890138646
15.6816269057487
15.6956496895635
15.7066907164571
15.7149114100592
15.7204924902966
15.7236186968387
15.7244762077665
15.7232472098316
15.7201088138995
15.7152309794032
15.708776100808
15.7008979826527
15.6917415277083
15.6814425545335
15.67012754459
15.6579141019248
15.6449116549997
15.6312209565909
15.6169387252657
15.6021453506112
15.586910496623
15.571303831446
15.5553827288496
15.5391984333223
15.522798669377
15.5062245678786
15.4895119034679
15.4726919515857
15.4557923202194
15.4388376626605
15.4218508276067
15.4048536756886
15.3878689891037
15.3709213361653
15.3540407081688
15.3372630009562
15.3206377753445
15.304226644784
15.2881211342329
15.2724334249082
15.2573408005163
15.2429749132137
15.2304645122562
15.2158575041981
15.1953305041916
15.1728482908838
15.1512002091976
15.1316759311971
15.1162839031241
15.107169474298
15.1075434709152
15.1293970130856
15.2126816831334
15.1949878098528
14.9167841358243
14.7520617301774
14.898356757618
15.3788708798516
16.1306237639184
17.1053672693621
18.254133476793
19.567033201746
21.002730351831
22.5405462638876
24.1739345939036
25.9890467781892
28.0108040497861
30.2689122647047
32.8118897388171
35.6695221996899
38.7700086423764
41.7948963572894
44.5672357464572
46.7060361285418
47.6505074148501
47.3204661223083
47.0060372076805
49.9574741698707
55.8838289549387
65.3483951867335
70.6452256757605
49.4420223144693
47.4804345010837
49.7647988908628
65.6239034509304
73.3634281940392
48.5449767504476
30.5404879582483
27.0053210712796
25.5775150450642
23.7226124804727
21.735834886839
20.0826214169314
18.8236494979607
17.8797260941331
17.0914061718172
16.3392467125702
15.5592588736941
14.7508555267566
13.9460344395819
13.189480079551
12.5274728519635
11.9921957798656
11.6001629766089
11.368491905458
11.3163326756571
11.4415954681109
11.6882835859762
11.9109511758891
11.9121865619478
11.8584578990912
11.8735360826672
11.9068855151633
11.9350024373133
11.959314207959
11.9850010105882
12.0108195458839
12.0345674636491
12.0558518971273
12.074411498905
12.0902045415578
12.1032722710203
12.11371584708
12.121660296347
12.1272472154716
12.1306230523814
12.1319365621429
12.1313345744684
12.1289608288333
12.1249543151646
12.1194487696188
12.1125718320278
12.1044447310086
12.0951820950828
12.0848917754108
12.0736753914152
12.0616289059946
12.0488412331794
12.0353976599438
12.0213722372155
12.0068312871738
11.991840184369
11.9764562342704
11.9607321877494
11.944717976806
11.9284591470106
11.9119976460164
11.8953725461645
11.8786208021783
11.8617779729097
11.8448792601138
11.8279604274637
11.8110594654767
11.794217777225
11.7774831685419
11.7609112364664
11.7445713289971
11.7285475082645
11.7129514048879
11.6979202581451
11.6836475725862
11.6703222797915
11.6586910484369
11.6473063793708
11.63402439954
11.6205002201526
11.6091306036403
11.6016204980069
11.6003781480914
11.6082855064654
11.6302522665528
11.6762968663755
11.7878993836905
11.8173812341584
11.5876292095195
11.4002183788573
11.4217732863063
11.6854035888042
12.1508863108365
12.777074041239
13.5248190200213
14.3866582295671
15.3376061280675
16.3624564739707
17.4574649142797
18.6807688094145
20.047614968876
21.5663836324194
23.25717654439
25.1294604489472
27.1194831417432
29.0057519860476
30.6859652228994
31.9601132646919
32.5211428247255
32.337332699186
32.2105099236644
34.2952496035003
38.4448901540001
44.9440546625124
49.2922253406727
37.4926202097128
36.5524674432898
38.200023419316
51.7705234615801
63.4653705918863
45.7326700306923
25.1533390738724
20.0629212419826
18.5968469424556
17.2133309221834
15.8379044546344
14.7454280711724
13.954116372121
13.3914043127754
12.9229305796996
12.4544030632706
11.9467848053878
11.4106984828898
10.872462496998
10.3675797020106
9.93243164767649
9.59056904870938
9.35282807153498
9.23360742940172
9.24768865982182
9.38833027411569
9.60426699548091
9.776703051481
9.76093848836132
9.70390843456956
9.70693096036511
9.72722146344663
9.74744548722135
9.76793491248777
9.78973711849279
9.81136256206099
9.83128695194213
9.84914543909113
9.86470908443633
9.87792842911426
9.88882457091788
9.89747056050617
9.9039619783385
9.90841018571525
9.9109325907524
9.91164994833937
9.91068270547731
9.90814968277746
9.90416657342808
9.8988453256421
9.89229336856668
9.88461327032157
9.87590253593726
9.86625350122548
9.85575405936628
9.84448733602808
9.83253090533627
9.81995909625326
9.80683803072456
9.79322798889255
9.7791879464413
9.7647712578589
9.75002782590796
9.73500533814298
9.71974847648304
9.70429949787413
9.68869886765815
9.6729859604913
9.65719977306313
9.64137988408659
9.62556740712894
9.60980649348226
9.59414565626721
9.57864036186683
9.5633548465074
9.54836701896682
9.53377069500675
9.51968561097777
9.50625915780521
9.49368912666488
9.48219112970891
9.47232500936285
9.4636288558737
9.45504577212811
9.44736748015938
9.44251908227631
9.44228109604481
9.44912732155484
9.46619171403781
9.49877205409883
9.55579472804097
9.67604896286081
9.73538423044814
9.56035360189044
9.38078810179406
9.34395289146334
9.48991603412457
9.79483381138437
10.2251491177426
10.7486042265307
11.3582134788094
12.0374265663922
12.7746799652693
13.5677218687877
14.4583141530306
15.4579188203059
16.567181179862
17.7935462248939
19.1377626738537
20.5458878190671
21.8548451498452
22.9949443348809
23.8495732652071
24.2346128613991
24.136681362431
24.0961828953414
25.6199966563306
28.7052144462973
33.406583444266
36.8141959070125
29.710198140147
29.316149135052
30.5566491615288
41.4597231341182
55.6533776345641
44.4527746030394
23.1978949850809
16.3989075111337
14.6867342623803
13.5239511811225
12.4687237156318
11.6675061565074
11.1145471810358
10.7406592670098
10.4300448910105
10.1055853230205
9.74158902623133
9.35210855305099
8.95991493961675
8.59452993767827
8.28533201050195
8.05013922996558
7.89663410990032
7.83634847018129
7.87946270213693
8.01585524709114
8.19871242911728
8.32997345829948
8.30471532039475
8.25010454431415
8.24709461612066
8.25987726774631
8.27512546064459
8.29216614361025
8.31036367380533
8.32829913373352
8.34481855250172
8.35957985563567
8.37237572791856
8.38315099363719
8.39191341701545
8.39871752291359
8.40363971765815
8.40677177348239
8.40821234960715
8.40806412202014
8.40643044733199
8.403413903695
8.39911485604967
8.39363074630823
8.38705535426315
8.37947843793619
8.37098553084495
8.36165800725561
8.35157361040305
8.34080570429725
8.32942311963362
8.31749162135617
8.30507062155271
8.29221486152414
8.27897757787216
8.26540783908376
8.25155198147341
8.23745454263016
8.22315791241453
8.20870281528231
8.19412888587888
8.17947532762125
8.1647816110865
8.1500883751976
8.13543838281486
8.12087790579483
8.10645809925775
8.09223732001819
8.07828313714582
8.06467654856572
8.05151484939488
8.03891987382041
8.02704166726418
8.0160763236077
8.00625007508879
7.99801910442948
7.9913521565388
7.98582437628327
7.98192095236048
7.98120665105269
7.98539721258407
7.99689232160744
8.01884394233577
8.0564559651458
8.11782573451796
8.23772177204402
8.31459324819215
8.18779631965769
8.02763534866204
7.96385690232909
8.04074440645119
8.24648450269141
8.55455715611305
8.93814729877009
9.39046807742499
9.89976123001475
10.4570113031902
11.060890037934
11.7427551076497
12.512080515826
13.3666959970067
14.3080445210685
15.3328337102196
16.395495881062
17.3708350833966
18.2065278491065
18.8289716709484
19.1199684796625
19.0738311658675
19.0769545766277
20.2279448202886
22.6088933586851
26.1848370677583
28.897602729666
24.3288956608729
24.2279953178162
25.2275778775453
33.6618967776395
48.903740508738
43.5126860726453
23.0939764906833
14.4408426960171
12.3155969651025
11.2357943410076
10.3582701363627
9.71954039950745
9.29686806846247
9.02307623639738
8.79625255601638
8.55133094518436
8.27023224092417
7.96759666863
7.66360128039992
7.3833484980424
7.15095480046327
6.98021869438194
6.87674719881599
6.84939235844182
6.90439600942815
7.02952885663123
7.1824692403475
7.28224761697771
7.25287003193727
7.20315177047921
7.1975029537032
7.20606586581836
7.21819358651939
7.23259482187055
7.24795883646399
7.26301195053449
7.27682939325588
7.28909317387427
7.29961544803493
7.30834036919428
7.31526959089434
7.32044759532219
7.32394016022033
7.32582797251199
7.32619901773937
7.32514557012994
7.32276105323599
7.31913847092737
7.31436900527428
7.30854124123941
7.30174045453531
7.29404824907765
7.28554238413694
7.27629705768069
7.2663828752718
7.25586638171303
7.24481009803331
7.23327351210209
7.2213108918418
7.20897253948973
7.19630708230963
7.18335984052138
7.1701738470621
7.15679059202393
7.14324994199715
7.12959057824616
7.11585053599446
7.10206783188209
7.08828114733992
7.07453068424979
7.06085910875561
7.0473128452631
7.03394345578333
7.02080975701226
7.00797990234775
6.99553511806559
6.98357286988432
6.97221391639173
6.96160699189938
6.95194341549253
6.94345123401425
6.93652294789743
6.93132624877914
6.92779462008104
6.92633449778744
6.92824316518504
6.93512677680409
6.94925524070206
6.97368504379555
7.0133448363799
7.07563178720562
7.19108654485509
7.27730064126655
7.18975954804652
7.05255667081302
6.97830346264769
7.01297497098208
7.15361949686387
7.37993642374622
7.66967370069342
8.01634320172384
8.41113611161555
8.84688740838625
9.3228862682214
9.86344878626865
10.4767242365893
11.1596619666101
11.9107996986305
12.7249488817436
13.5633155493014
14.3268629875003
14.9740420728494
15.455424856829
15.6908666732391
15.6775945844822
15.7036572910146
16.5964412872692
18.4813010535862
21.3002925308445
23.5142638430808
20.4222105685183
20.4814871018061
21.3404364320085
27.7218028801088
42.8777269546535
42.271588973834
24.0335074208477
13.5207327715206
10.8165780181613
9.72295924179573
8.94281495555287
8.39784011037925
8.04918699916389
7.83065567063957
7.65075106532039
7.45290613121018
7.22342180009662
6.97634375159922
6.72975965563612
6.50530742489764
6.32304501139373
6.19385353716398
6.12182303968013
6.11345094302033
6.17185801497626
6.28373586917414
6.41123903920631
6.48758374011713
6.45757393949521
6.4137269926478
6.4074370326413
6.41380365655783
6.42406605251511
6.43661119981341
6.4499003490247
6.46281136741103
6.47457685853809
6.48490522575124
6.49362849312418
6.50069501089356
6.50610628308486
6.50990335959095
6.51214788512372
6.51291581326149
6.51229043670102
6.51035927499881
6.50721106982815
6.50293413665379
6.4976149845792
6.49133749965021
6.48418226051594
6.47622618653768
6.46754247825011
6.45820089537248
6.44826736737174
6.43780391251925
6.42686870803269
6.41551681427017
6.40379873783769
6.39176141408649
6.37944992394675
6.36690653203525
6.35417146671883
6.34128354658182
6.3282802719218
6.31519824715884
6.30207369858874
6.28894307937737
6.27584373902857
6.262814742894
6.24989779754563
6.23713847135914
6.22458755526545
6.21230302297203
6.20035211759692
6.18881473091567
6.17778668228314
6.16738592657692
6.15775772959227
6.14908705253915
6.14159880185864
6.13564275327279
6.13147943464732
6.12924483560245
6.12934793122647
6.13289301644495
6.1413670347505
6.15689110173595
6.18237190711016
6.22239996473694
6.28375601809448
6.39298547089579
6.48320665158395
6.42656096573377
6.31228816014284
6.23663226432121
6.24519588373446
6.34145615122662
6.51047131008628
6.73392544559413
7.00578969601328
7.31920805171322
7.66840526377901
8.05310252720763
8.49262059793516
8.99408730473227
9.55436303614799
10.1706259835291
10.8368706629106
11.5197881655487
12.1393399305907
12.6614614712871
13.0511963308454
13.2514696016047
13.2598958494303
13.2976383569625
14.0052127597008
15.5251357533337
17.8029750179637
19.6481558371425
17.4731871973208
17.6209865572005
18.3939514149583
23.1667149175856
37.4491718383439
40.5901834489454
25.444871541061
13.3290449646599
9.87447791447996
8.68282546673828
7.94718217782195
7.45495418301608
7.14794722725993
6.95978139002124
6.80673040921637
6.63815098902894
6.44271430419158
6.2333152285876
6.02624696048529
5.84033491383006
5.69244450389326
5.59127535809769
5.53973936198365
5.54233815989673
5.59982266753021
5.69856563575745
5.8050402040508
5.86418237347327
5.83572736834261
5.79804128877637
5.79233933418723
5.79781273717485
5.80709590825877
5.81844487997799
5.83029889008326
5.84167515681806
5.85192391558651
5.86078198069319
5.86810234260513
5.87384163164526
5.87800588612768
5.88063777746786
5.8817997160892
5.88156766396832
5.88002466068185
5.87725764278156
5.87335454015598
5.86840257499319
5.86248690290241
5.85568977512858
5.84808988620347
5.83976205412327
5.83077735105554
5.82120305136215
5.81110236574733
5.8005345209039
5.78955487904503
5.7782155103743
5.76656428382648
5.75464567796415
5.7425021164024
5.73017345576173
5.71769762912121
5.7051112009169
5.69244957438379
5.67974741368084
5.66703915045826
5.65435957316331
5.64174448441449
5.62923149130432
5.61686090967538
5.60467692369197
5.59272891565764
5.5810732988813
5.56977557179362
5.55891341909108
5.54857999698787
5.53888950926703
5.52998257495963
5.52203701644183
5.5152717915481
5.51000569085326
5.50654025037446
5.505125786428
5.50619225857665
5.51070836042917
5.52004525683611
5.53617281848151
5.56182403827491
5.60123833677709
5.66064174199462
5.76297596203228
5.85376079076793
5.82100241778003
5.72803587862562
5.65602818719895
5.64868375296973
5.71399021023906
5.84153235964546
6.01642919933946
6.23324830246133
6.48651959817789
6.77154509564154
7.08835803897701
7.45260713838463
7.87057369190913
8.339348296799
8.85555808930051
9.41295936012498
9.98275689855286
10.4992783479827
10.9340858150294
11.2612585700646
11.4380983221731
11.4611283057432
11.5038041455652
12.0739432974179
13.3170743277028
15.1902590126498
16.7522047616719
15.1765929649154
15.3728698858516
16.0869328454476
19.6480149819303
32.556069124038
38.4926170212271
26.8856082653202
13.7113754587715
9.33310937752409
7.9577916626444
7.22545534271198
6.75854044745156
6.47265523366386
6.29968134638138
6.16154756164184
6.01160432275418
5.83954377128387
5.6568055750561
5.47806555157352
5.31980520208781
5.19633243355026
5.11467179011518
5.0767910401537
5.08554167319011
5.13993358821589
5.22654943621704
5.31590408273833
5.36256302054255
5.33700691731878
5.30545358299833
5.30112536637663
5.30658070053187
5.31553171692871
5.32621891534274
5.33715440610325
5.34747919994537
5.35663757531578
5.3643962900226
5.37063052401757
5.37530851851702
5.37844453514458
5.3800867837772
5.38030220389948
5.3791703817092
5.37677747358193
5.37321298537687
5.36856695139159
5.36292820296407
5.35638303495315
5.3490143638789
5.34090111289124
5.33211799319144
5.32273568522748
5.31282051435726
5.30243445923529
5.29163528406668
5.28047671985091
5.26900895765882
5.2572781217132
5.24532697528516
5.23319600232151
5.22092320613469
5.20854467870875
5.19609511540014
5.18360810442021
5.17111655741561
5.15865321224437
5.1462512119881
5.1339447522953
5.12176984783559
5.10976521493761
5.09797337931588
5.0864419688844
5.07522543988097
5.06438707798307
5.05400187419449
5.04415975526595
5.03497066710444
5.02656995710571
5.01912797288901
5.01285615809902
5.00804926399086
5.0050233903821
5.00409148966434
5.00570252308241
5.01072802693426
5.02043242247221
5.03663955945584
5.06190105735842
5.10011405687421
5.15699833932735
5.25232121706212
5.34146958837889
5.32695209487037
5.25301633000343
5.18738420161096
5.1708173465533
5.214298948081
5.31116325940455
5.44953191935156
5.62466351534734
5.83213761293852
6.06811632051567
6.33286435211544
6.63925613350561
6.99284962376619
7.39108129438513
7.83046199964609
8.30483406439481
8.78919383625775
9.22909657815336
9.60055552494687
9.8834040051312
10.0439581072407
10.0767309249518
10.1199394622767
10.584944550235
11.6131436448499
13.1737212938251
14.5108689712871
13.3427773393719
13.5643010167507
14.2312893865859
16.9060568666461
28.1728927376349
36.0621322093201
28.0344757281085
14.5839349266993
9.11612374490278
7.46212044392717
6.6952121288352
6.23282183773803
5.95369577314377
5.78574044072077
5.65473759437407
5.51653392809513
5.36087526795109
5.19754362801569
5.03969793398759
4.9018195945437
4.79613067993757
4.72833900531247
4.69964575816887
4.71156486463975
4.76186890180479
4.83769656975923
4.91325437118089
4.95098797994434
4.92913812913704
4.90354863817139
4.90111212005754
4.90716077923091
4.91626590442016
4.9267203306967
4.93715025303776
4.94680603251031
4.95521111115308
4.96216331643078
4.96756120231387
4.97138736108153
4.97366724949709
4.97445773575504
4.97383326685892
4.97187989673964
4.96868953697508
4.96435671885248
4.95897584485009
4.9526394456461
4.94543687865194
4.93745349647092
4.92877008201071
4.91946281837415
4.90960322319272
4.8992579246001
4.88848880756763
4.87735320386654
4.86590413653293
4.85419078160966
4.84225822633213
4.83014811567919
4.81789956737433
4.80554919143042
4.79313162427424
4.78068002502849
4.7682264262271
4.75580217797711
4.74343845235611
4.7311668165113
4.71901987208918
4.70703200212918
4.6952402326663
4.6836852956708
4.67241288237089
4.66147527767594
4.65093329748347
4.64085897622259
4.63133870748867
4.62247792912468
4.61440641449477
4.60728695286189
4.60132264682257
4.59678852408053
4.59400139498654
4.59330579549468
4.59516202281077
4.60036903685858
4.61009497180502
4.62602623836672
4.65053423176841
4.68719195606178
4.74125278453311
4.82972409281139
4.91585595004345
4.91510685285804
4.85776044086715
4.7998198117181
4.77849572898419
4.80657141721194
4.88041999981887
4.99077613428145
5.13364137653551
5.30543674341279
5.50302989693842
5.7268617418236
5.98766538649829
6.29037434128027
6.63279819390884
7.01156804365936
7.42080033336437
7.83874695501139
8.21998051629492
8.54413727194631
8.7946769524648
8.94345241567173
8.98237903930475
9.02301532649187
9.40542861353316
10.2635442655288
11.5767430528827
12.730877304372
11.8484891838995
12.0813228279541
12.705403634947
14.7463498852224
24.3000303336964
33.4054329388722
28.7652293036373
15.8483423681165
9.19098181037311
7.14945664688595
6.30805354222071
5.83215789765279
5.54862727848298
5.37814770294169
5.24867028555859
5.11732499098444
4.9731739704086
4.82417570314496
4.68201633842933
4.55942911371115
4.46690327697415
4.40908957025016
4.38656506662243
4.39977854705494
4.44565767019841
4.51210595067261
4.57663948041662
4.6081369712175
4.59046105981804
4.57061223531076
4.57041678496439
4.57750274834689
4.58713672379096
4.59770386108342
4.60795900248414
4.61724957840709
4.62516829416666
4.63154488757965
4.63630240613896
4.63944010411509
4.64099710633747
4.64104151076519
4.63965771446437
4.63694055656526
4.63298984409954
4.62790711503038
4.62179295729388
4.61474527021317
4.60685800353553
4.59822034851878
4.58891628720336
4.57902463237749
4.56861873811719
4.55776652231453
4.54653067021879
4.53496889125624
4.52313422869876
4.51107552228051
4.49883738545473
4.48646082477126
4.47398404925908
4.46144265192702
4.44887013365274
4.43629839650019
4.42375814285761
4.41127933635512
4.39889171195644
4.38662534677324
4.37451129366504
4.36258231211556
4.350873710024
4.33942436748119
4.3282779501973
4.31748446361539
4.30710212135383
4.29719987113218
4.28786042639909
4.27918461911362
4.27129653771461
4.26435147370632
4.25854380835887
4.25413165634077
4.25142521274369
4.25078164998498
4.2526644393444
4.25781540822569
4.26731637117983
4.28272604714541
4.30624153992296
4.34113340730871
4.3922226767928
4.47413497568913
4.55641419449932
4.5659187181829
4.52278579354607
4.47298552018143
4.44990209278754
4.46719308557894
4.52363295640905
4.6122104725342
4.72968499163221
4.87318327865201
5.04016563943777
5.23121081388874
5.45537124852787
5.71704114500014
6.01439362294594
6.34430837430698
6.70128943680315
7.06644704699467
7.40176107193623
7.68984464541615
7.9163029509345
8.0561758919006
8.0984048798824
8.13411135999536
8.45014479083165
9.17156299240088
10.2853969648531
11.2876850249257
10.6104382325473
10.8459844566177
11.4280494881715
13.0231528958878
20.9356431149035
30.6396049419084
29.0325932658841
17.3728568922769
9.54955017140555
6.9974365105368
6.03545246497539
5.52819322065637
5.2305578422974
5.05134282841464
4.91891342517448
4.79064063506133
4.65430457997974
4.51587996628448
4.38557819303494
4.27456406256349
4.19185815247183
4.14124532130753
4.12279572721839
4.13612416642981
4.17761224500295
4.23603710822016
4.29184023313179
4.31914596390425
4.30589788602655
4.29155531669018
4.29384604435353
4.30229844710496
4.31275662873013
4.32371693677862
4.33406409263962
4.34323243854734
4.35087704433243
4.3568602208137
4.36113058162662
4.36370605754679
4.36464157749338
4.36401866984489
4.36193376288315
4.35849244274473
4.35380421430547
4.34797927974645
4.34112592352331
4.33334879215598
4.32474768371562
4.31541678220372
4.30544439918414
4.29491280727212
4.2838980586682
4.27247014734838
4.260693273331
4.24862617026648