/*--------------------------------*- C++ -*----------------------------------*\
  =========                 |
  \\      /  F ield         | OpenFOAM: The Open Source CFD Toolbox
   \\    /   O peration     | Website:  https://openfoam.org
    \\  /    A nd           | Version:  7
     \\/     M anipulation  |
\*---------------------------------------------------------------------------*/
FoamFile
{
    version     2.0;
    format      ascii;
    class       volVectorField;
    location    "5000";
    object      U;
}
// * * * * * * * * * * * * * * * * * * * * * * * * * * * * * * * * * * * * * //

dimensions      [0 1 -1 0 0 0 0];

internalField   nonuniform List<vector> 
15600
(
(0.104525467899513 -0.00037722712156285 -1.15946424588075e-21)
(0.126214164999616 -0.00348636622405223 -2.38824649164139e-18)
(0.0897410913359319 -0.0117941445845601 0)
(0.00746459562971534 -0.00497358903924464 -2.02968996490015e-17)
(-0.0423211875713492 0.0166698784986335 -2.39722403221826e-21)
(-0.0393566647964028 0.0222787246748223 -1.48540562806714e-20)
(-0.0265500801132082 0.0179801031886846 -4.17683326854408e-17)
(-0.0207156441792522 0.0154907464607965 4.30367516003635e-17)
(-0.0169384430754301 0.0134787265360623 -1.25985229212044e-14)
(-0.0155567465602366 0.012606583561298 -1.3221685282273e-14)
(-0.0145109762959942 0.0116827810281024 1.22219092421565e-20)
(-0.0142640219943159 0.0112981287791995 -2.56788046296524e-20)
(-0.0142881445032703 0.0111796159707457 2.70159001808389e-20)
(-0.0147899095213058 0.0114702093874345 -5.77169147510886e-17)
(-0.0159429217356566 0.0122783359641014 -6.00578829429858e-17)
(-0.017858563774707 0.013654599354808 -6.06230539230499e-20)
(-0.0202806412997456 0.0153429420410489 -6.38528223382022e-17)
(-0.0229783396563783 0.0169655702178676 1.32078779060893e-16)
(-0.0259332037429144 0.0183620795768038 -6.82170321997133e-17)
(-0.0289292587741647 0.0192607611121909 -7.11088593270591e-17)
(-0.0316213114195558 0.0193462906788508 7.38122179252723e-17)
(-0.0340533691570702 0.0185639956848395 -7.66092290995101e-17)
(-0.0365007080042451 0.0171708830675645 -3.06310168400143e-22)
(-0.0387279784445807 0.0151787971305543 8.12966897115532e-17)
(-0.0405209240660776 0.0125592877444648 0)
(-0.0418000403283621 0.00938127997547682 0)
(-0.0414837331621294 0.00559315361848811 -6.18024772142748e-15)
(-0.0454935526158292 0.00202784170771379 -6.18596686586411e-15)
(-0.0578145867746524 0.000478515602033311 1.91959877413922e-23)
(-0.0683683562180483 0.000481903441578751 5.5862414187177e-31)
(-0.0742835674028348 0.000473073987675451 0)
(-0.0780936460345901 0.000463811250055977 -6.45684977857559e-15)
(-0.0802798268416907 0.000456626401560159 -6.52326741597511e-15)
(-0.0813192063614572 0.000444586191708072 0)
(-0.0814038419693917 0.000429253499984986 0)
(-0.0807131581111754 0.000411104526377736 0)
(-0.0793689441296165 0.000391157209873778 0)
(-0.0774697795768989 0.000369523226783561 -7.62849618669727e-20)
(-0.0750970028280303 0.000346809873095652 6.35245586389843e-15)
(-0.0723244335963766 0.000323524003414419 6.48011170863013e-15)
(-0.0692185722723307 0.000300121966750247 -7.79720662476595e-20)
(-0.0658404478111696 0.000276988055578693 -7.93464186874328e-20)
(-0.0622457863009927 0.000254425809510705 7.98338210711271e-20)
(-0.0584852033317355 0.000232672061031549 -8.1321602116156e-20)
(-0.054604323407952 0.000211895435746826 8.19337752567967e-20)
(-0.0506438376610934 0.000192211411642341 0)
(-0.0466396981613156 0.000173686702354082 -7.28502928198701e-15)
(-0.0426233029204072 0.000156350836655293 -7.43421943070998e-15)
(-0.0386217824526919 0.00014020193456177 -8.67981652283606e-20)
(-0.0346582964590015 0.000125215164201756 4.39072420293539e-20)
(-0.0307523826929743 0.000111347891263282 -4.47172648342923e-20)
(-0.026920297320341 9.85449353311079e-05 9.04749889406812e-20)
(-0.0231753761351475 8.67429955289947e-05 -7.62562247092451e-15)
(-0.019528367504408 7.58728482966044e-05 -7.75505759467091e-15)
(-0.0159877832625948 6.58650576786395e-05 -2.3501575013962e-20)
(-0.0125601787682502 5.6651202742611e-05 0)
(-0.00925048435142653 4.81205903207733e-05 1.40591032669121e-30)
(-0.00606224759863207 3.94536283032631e-05 -1.22455403436755e-20)
(-0.00299789423642686 3.06491612787466e-05 1.85517539981977e-20)
(-5.89854909789172e-05 2.26177413168644e-05 -6.23039126877976e-21)
(0.00275376856726336 1.55408295738753e-05 0)
(0.00544027337572552 9.16367077583586e-06 1.24875029981164e-20)
(0.00800077126893644 3.23870205214626e-06 -1.24321907536709e-20)
(0.0104358293171297 -2.2856634078646e-06 1.44688572447753e-30)
(0.012746204423754 -7.46541950461095e-06 0)
(0.0149327138502774 -1.23529084327045e-05 -2.48239241459879e-20)
(0.016996145902827 -1.69970928605331e-05 2.474555083302e-20)
(0.0189371636247412 -2.14440036955558e-05 0)
(0.0207562214024032 -2.57376172698569e-05 0)
(0.0224534693360526 -2.99197873261293e-05 0)
(0.0240286764604543 -3.40318997665009e-05 0)
(0.0254811127020343 -3.81137916752133e-05 0)
(0.0268094799341678 -4.22072518151024e-05 8.27648200424775e-15)
(0.0280117300672277 -4.6352187022697e-05 1.65154858649487e-14)
(0.029085026548695 -5.05951003721203e-05 8.23720238456205e-15)
(0.0300254032545252 -5.49775179555984e-05 -1.98766230015883e-19)
(0.0308278475991976 -5.95581982432622e-05 9.94670956133213e-20)
(0.031485555720871 -6.43796577854326e-05 -9.98565770877157e-20)
(0.0319904567801521 -6.95290060517966e-05 9.9927319859377e-20)
(0.0323313140760471 -7.50451685442102e-05 8.39624310025869e-15)
(0.0324963376063616 -8.10968688574536e-05 8.34215032105097e-15)
(0.0324670865898885 -8.76850118774435e-05 -1.00937088123056e-19)
(0.0322292636066005 -9.51040124792244e-05 1.01540828691304e-19)
(0.0317532816023902 -0.000103195900456793 -2.03857443853043e-19)
(0.0310120136284732 -0.000112615514284301 1.02389650765592e-19)
(0.0299484064501661 -0.000122752957965208 -2.06505023116244e-19)
(0.0285248828321717 -0.00013535401279304 4.15691017311296e-19)
(0.0266299689586626 -0.000148429868669803 -2.09451605469707e-19)
(0.024223540337871 -0.000166694141072421 -2.12149340721363e-19)
(0.021054668839421 -0.000183590409051473 4.29152515978475e-19)
(0.0171471758840021 -0.000211736123837123 0)
(0.0116465529708789 -0.000225282433807488 -2.71234077211057e-23)
(0.00464652498610838 6.85325597673923e-06 0)
(0.00364134107155376 0.00045399680241826 2.28993661299032e-19)
(0.00608013333168278 0.00161030014633097 -5.7992898325071e-17)
(0.00833491632424328 0.00300663141820827 -6.11430357670467e-22)
(0.0115239913954756 0.00508242926629459 -1.07405777600781e-16)
(0.0151376844626974 0.007775327356903 -1.0349634230313e-16)
(0.0193990456291925 0.0112521879858667 9.83673457645516e-17)
(0.0247763733205861 0.0157234993648247 -9.33072429187762e-17)
(0.0309038628536481 0.0208927965175674 8.85871809327127e-17)
(0.037510085698711 0.0264682330510769 8.42537506999808e-17)
(0.0444843314163636 0.0322454142006485 0)
(0.0518342564804713 0.0380496385278262 0)
(0.0584667277485999 0.043116644491356 -7.36999574179116e-17)
(0.0639748652676628 0.0475147136456334 -7.06919662451544e-17)
(0.0692668280971434 0.0519981636037906 -6.75865981860819e-17)
(0.0747835635398366 0.0569269713318842 -6.43151838946127e-17)
(0.0810989959494527 0.0627415850979899 -6.08321034214902e-17)
(0.0893695348425317 0.0703030738249208 5.69473274234233e-17)
(0.10289509222961 0.0813298126431844 5.26968692425348e-17)
(0.122643166231898 0.0946826534195413 -4.85785050099069e-17)
(0.147996913279818 0.108316667059067 4.44999633746245e-17)
(0.183935694272502 0.122280301799283 4.03663969614733e-17)
(0.23181022717738 0.13124655314561 -3.60599575160548e-17)
(0.286375484521108 0.12207129778374 0)
(0.277306788711885 0.071752897451407 1.44868999080976e-17)
(0.196811108946596 0.0228164690761628 0)
(0.11131793826748 0.00211476151275167 -2.08361210061748e-18)
(0.0846601043760341 -0.000591423985924514 0)
(0.332720055031817 -0.00159114552068254 0)
(0.36273220265679 -0.00863659701455618 -7.20474245429849e-22)
(0.298561527974058 -0.0310444017012983 -4.82447431559474e-21)
(0.104661938268382 -0.0231870294905192 1.68082266641084e-14)
(-0.0701733520400379 0.0360160706379681 1.88732629449176e-14)
(-0.0920486140823666 0.057257618746513 -5.8989149330459e-17)
(-0.0665777923388953 0.0481907956870183 1.82609738464626e-23)
(-0.0533839805105176 0.042460117431646 -6.21072868343599e-17)
(-0.0449415312023839 0.037718243711054 1.84420287008241e-14)
(-0.041882757567016 0.0356323369453975 1.92294797149437e-14)
(-0.0399458946302722 0.0334412891291584 -3.53836693453532e-20)
(-0.0398721711593002 0.0326177562699555 3.71737720383047e-20)
(-0.0406299049207939 0.0325908873760899 -3.85786837714509e-20)
(-0.0426822755748958 0.0337460352934306 -8.15412442885835e-17)
(-0.0463937794253295 0.0363346091775304 1.66255201862585e-16)
(-0.051817650119656 0.0403672706408521 -8.1795603017644e-20)
(-0.058313124569596 0.0451059114476767 8.40807147526847e-17)
(-0.0653994357689895 0.0495305477072819 -8.41152595781157e-17)
(-0.0729334354082887 0.053122330864336 1.62850422189868e-19)
(-0.0804435801101591 0.0551482564732948 -1.619498661579e-19)
(-0.0874463379830711 0.0549211717360382 -8.19100907231287e-17)
(-0.0941251360408091 0.052367134607666 8.10053660313776e-17)
(-0.100727047755931 0.0480321686087524 7.97193170816398e-17)
(-0.106744605190947 0.0420092797237996 -1.52143450607232e-19)
(-0.111827945682356 0.0343543431060353 3.81697432348529e-17)
(-0.11610861124771 0.025369377540376 -3.74474442545494e-17)
(-0.120628245601431 0.0154693441069431 5.32018250390947e-15)
(-0.13289655800124 0.00635985409015377 4.92888307218323e-15)
(-0.153149775136173 0.0021121816409056 -2.96816217257735e-23)
(-0.16728402894739 0.00136102632692378 -4.18530314704136e-31)
(-0.174001622410561 0.000787354578322535 0)
(-0.17718904413145 0.000436763688365233 4.72583771244423e-15)
(-0.177708294725882 0.000189160581264804 4.57815195537551e-15)
(-0.176338954444039 -2.83468417506345e-06 2.09987696470754e-19)
(-0.173451393749806 -0.000157146738317393 -1.03505188580755e-19)
(-0.169354889434517 -0.000284729748300589 -1.03432839887748e-19)
(-0.164250075896039 -0.000391758507641155 1.02489979555296e-19)
(-0.158308342708208 -0.000482212540724664 7.48492443432038e-31)
(-0.15166917874295 -0.000558277085799981 -4.3226188215623e-15)
(-0.144455760441083 -0.000621512180501183 -4.30260262360218e-15)
(-0.136776294597238 -0.000673171661365229 0)
(-0.128727619018021 -0.000714323779667994 5.30899081821364e-20)
(-0.120396243553162 -0.000745979507929537 3.15156519127567e-22)
(-0.111859383242526 -0.000769085383482394 -5.41762936703576e-20)
(-0.10318567539582 -0.000784561071628608 -5.53189484117106e-20)
(-0.094435745173725 -0.00079327880069145 1.12167003193603e-19)
(-0.0856628166508599 -0.000796070266434659 4.95775008320819e-15)
(-0.0769132421369243 -0.000793712582609028 5.01675425961655e-15)
(-0.0682270864168532 -0.000786928120539342 5.91363410349316e-20)
(-0.0596386737482865 -0.000776377110423791 0)
(-0.0511771565754606 -0.000762658323840057 -3.09341254851929e-20)
(-0.0428670420364407 -0.000746308377935482 3.14609252594869e-20)
(-0.0347287233599157 -0.000727802552498876 5.37596912479819e-15)
(-0.0267789550756781 -0.000707558882434827 5.47532334146419e-15)
(-0.0190313473686679 -0.000685936731720662 -1.68636471911832e-20)
(-0.011496748331458 -0.000663308476901818 -5.95822933897429e-23)
(-0.00418379040259043 -0.000640211335848369 -5.82802197230261e-23)
(0.00290092302646822 -0.000616414445861663 1.77809216269688e-20)
(0.00975252029167521 -0.000591840201063445 -4.4542573935863e-21)
(0.0163672756575373 -0.000566927869892364 4.43368531162609e-21)
(0.0227425778167832 -0.000541701065927116 -4.44121650490185e-21)
(0.0288767944543105 -0.000516372157646155 4.42616920678143e-21)
(0.0347688496760752 -0.000491124300736572 1.77475798404187e-20)
(0.0404181155723919 -0.000465990064816958 -1.77071272806764e-20)
(0.0458242056813857 -0.000440992503610646 0)
(0.0509867887863595 -0.000416136283712952 0)
(0.0559054337896589 -0.000391408440654503 0)
(0.0605794441217907 -0.000366778818921124 0)
(0.0650077032228754 -0.000342201131872959 0)
(0.0691884970265753 -0.00031761129987444 0)
(0.0731193540247209 -0.000292928899421787 0)
(0.0767968198158287 -0.000268051758500654 7.22123349455435e-20)
(0.0802162846076027 -0.000242859785702033 -6.01352097113953e-15)
(0.0833716439661619 -0.000217201153700127 -1.21221816151859e-14)
(0.0862551281410655 -0.000190904722729071 -6.11524521295643e-15)
(0.0888567033816299 -0.000163745014885647 -1.47172179470606e-19)
(0.0911639945930769 -0.000135481602399788 -1.33676415246017e-22)
(0.0931610679749953 -0.000105768406789442 7.45346238618594e-20)
(0.094828813223858 -7.42707863226195e-05 7.52731295339761e-20)
(0.0961420513751506 -4.04550682792586e-05 -6.28817179535835e-15)
(0.0970723927300867 -3.83452090506044e-06 -6.41776408664906e-15)
(0.0975762960175838 3.60427776877824e-05 7.74557911429539e-20)
(0.09762118508479 7.9543752224817e-05 0)
(0.0971439922815097 0.000129277102086565 1.58883245164221e-19)
(0.0960754575850719 0.000186002851855731 -1.60789316956168e-19)
(0.0942959978001115 0.000254106194811735 -1.63699243808917e-19)
(0.0916988702758984 0.000333230780099809 1.66421207324572e-19)
(0.0880538478578933 0.000433714836237472 0)
(0.0831994359574268 0.000552100471938688 0)
(0.0766236543588188 0.000715655746470453 1.8072443466936e-19)
(0.0681134290674415 0.000922751880431088 -5.07418058021122e-22)
(0.0559847545715721 0.00123668185591626 1.98418073707047e-19)
(0.0405163910723822 0.00237299043636783 0)
(0.0357231715071658 0.00431968905774786 -1.67114072576216e-22)
(0.0387386556719947 0.00804761061238956 0)
(0.0431422165449112 0.0125779431506564 5.11138153969856e-17)
(0.049279497476437 0.0185197340258597 -9.78357262182235e-17)
(0.056577772256312 0.0258508600123093 -1.8282948693965e-19)
(0.0652647839154577 0.0348930663666384 1.73843975546448e-19)
(0.0761410626517329 0.0460353389492406 1.65317805383736e-19)
(0.0887916351883392 0.058774781695368 -8.0796609029484e-17)
(0.102833852141155 0.0725240526612793 -1.61003366514234e-19)
(0.118022809743329 0.0868453352883478 -7.36431964369565e-17)
(0.134369410675414 0.101359762536551 0)
(0.150240407285327 0.114731453133957 0)
(0.164544331229592 0.12695668232575 6.7113277162707e-17)
(0.178138366119939 0.139373449949424 6.52556626777455e-17)
(0.191880389142581 0.152843993948877 6.32554158983292e-17)
(0.206894161820229 0.16834778806873 3.81867463590814e-20)
(0.225224610233478 0.187640720556896 -5.775016899883e-17)
(0.252681041293079 0.214000281896104 -1.07317147044865e-16)
(0.292793144253567 0.245269562238468 0)
(0.34593127956554 0.276645693278606 0)
(0.419188888367484 0.306094773339831 -3.87831115648674e-17)
(0.515440484580336 0.321772690082522 -3.30859184696025e-17)
(0.630785577335588 0.299441669704685 2.86649435825706e-17)
(0.671597280876012 0.19760101585175 -1.26770906861535e-17)
(0.581496139618806 0.0819535961271162 0)
(0.421499489174185 0.0161365632890237 0)
(0.331858419344936 -9.54156070272899e-05 0)
(0.520047236032293 -0.00151131017604341 0)
(0.534580836117276 -0.0118164581864755 1.49555589643816e-18)
(0.47644920267268 -0.0444186435895207 0)
(0.247708767572691 -0.0493857248575609 -1.09109707042673e-14)
(-0.0402865563895063 0.0300407572472248 -1.46246020641186e-14)
(-0.120872484828753 0.0756622104398764 5.40104240060876e-17)
(-0.095657110402185 0.068127418021721 0)
(-0.079070899324263 0.0620937720922889 6.91147648585942e-21)
(-0.0682724523939096 0.0568392944547598 -6.04368037955436e-17)
(-0.064442684350092 0.0545430625711042 6.39349689478476e-17)
(-0.0623981271936612 0.0520787848361249 8.85839240387427e-23)
(-0.0628987149980233 0.0513996476250779 -3.38240007599028e-20)
(-0.0647187721969928 0.0519564734501834 0)
(-0.0684315006137608 0.0542764745072543 7.14124361896554e-17)
(-0.0743942381283681 0.0585770596580953 -1.04436453714378e-21)
(-0.0823845382744487 0.0646083332949914 -6.71664921372318e-20)
(-0.0913996267768877 0.0711802409045945 6.45397005429721e-20)
(-0.100749135142073 0.0767906840096414 0)
(-0.110087366284866 0.0806310565241854 0)
(-0.118848194162525 0.0818428762164789 0)
(-0.126689104641012 0.0798548572512842 0)
(-0.133974942045558 0.0747937246369718 -5.0564815038236e-17)
(-0.140920152230496 0.0674408015717026 -4.75622317946076e-17)
(-0.147141230265442 0.0581303876161577 8.82781926111536e-20)
(-0.152594535505402 0.0471172217455148 -8.83071077979171e-20)
(-0.15781012042294 0.0348779274888574 4.11283813488509e-17)
(-0.164307303539828 0.0218742382387803 1.95144728756538e-17)
(-0.177447197869025 0.00971111552744578 7.04952704891737e-20)
(-0.194134901553941 0.00375268526085117 1.5664470182942e-23)
(-0.203945695893374 0.00222203568826182 0)
(-0.207718827849627 0.00112941555590782 0)
(-0.208411010208596 0.000460856625034504 0)
(-0.206679920925594 -1.92481624940757e-05 0)
(-0.203220425450729 -0.000387696483716574 0)
(-0.198355935755961 -0.000683071945512168 0)
(-0.192353409847452 -0.000926247478282085 0)
(-0.185396951476722 -0.00112934982703221 0)
(-0.177649202225731 -0.00129958350463509 0)
(-0.169243951855431 -0.00144156199544371 2.4631559614682e-20)
(-0.160300142049028 -0.00155851510827077 -2.44376719270363e-20)
(-0.150922708995867 -0.00165308518978838 2.4613344385456e-20)
(-0.141205791801242 -0.00172749385423784 -2.45423183176107e-20)
(-0.131233627159351 -0.00178379467428229 0)
(-0.121081506775887 -0.001823876989641 0)
(-0.11081643769601 -0.00184953569626485 2.52030166430753e-20)
(-0.10049768576946 -0.00186245083560297 1.35248052968161e-22)
(-0.0901773551470911 -0.00186420193534146 -2.5606367024886e-20)
(-0.079900899210327 -0.00185625294271604 0)
(-0.0697076800494379 -0.00183995389612751 0)
(-0.0596314954802153 -0.001816533378252 0)
(-0.0497011252629128 -0.00178710137100824 0)
(-0.0399408383422874 -0.00175265040047682 0)
(-0.0303709054355324 -0.00171405880221204 1.4021372951732e-20)
(-0.0210080576585408 -0.0016720976267633 -1.42014634971254e-20)
(-0.0118659688856784 -0.00162743516947693 -7.24986614562804e-21)
(-0.00295563139815541 -0.00158068114142675 -2.5468835091661e-23)
(0.00571417889104587 -0.00153219140322595 -2.46005208259395e-23)
(0.0141365404491001 -0.00148192612248984 7.45327814970715e-21)
(0.0223061683702494 -0.00143038791115526 0)
(0.0302190341930406 -0.00137828396244372 0)
(0.0378722411716444 -0.00132583896798334 0)
(0.0452637561169776 -0.00127322977149726 0)
(0.0523920687809086 -0.00122057649125084 7.6962079809595e-21)
(0.059256079828886 -0.00116793772088628 1.91625325360436e-23)
(0.0658548935101332 -0.00111534322661831 -7.78452799385005e-21)
(0.0721876300847336 -0.00106278603564369 0)
(0.078253262658895 -0.00101022413720151 -1.58409985871066e-20)
(0.0840504458171849 -0.000957580668635269 1.59319708038201e-20)
(0.0895773516589976 -0.00090474444133754 -1.60974449858359e-20)
(0.0948314839939425 -0.000851566885899518 -3.30715925467063e-23)
(0.0998095031797975 -0.000797861879437943 -1.6410206513803e-20)
(0.104506991238398 -0.00074339705704795 3.29913761054753e-20)
(0.108918253299508 -0.000687894685133014 0)
(0.113035971743853 -0.000631011186010356 0)
(0.116850985854909 -0.000572345210718842 3.40520747329691e-20)
(0.120351702980905 -0.000511389106359764 6.26456480072117e-23)
(0.123523913539316 -0.000447563529912269 -3.47541240778539e-20)
(0.126349643336737 -0.000380098606127521 -3.52384336904485e-20)
(0.128807267570805 -0.000308148201043383 3.56275150753397e-20)
(0.130868929767484 -0.000230535654689917 -3.61819645932701e-20)
(0.132502200196429 -0.00014590714623928 -6.65604439935412e-23)
(0.133663029299316 -5.28895599173228e-05 3.72391014964822e-20)
(0.134304979313738 4.98457996794177e-05 7.58379024196402e-20)
(0.134358580695972 0.000167008195907619 1.47173948956072e-22)
(0.133746335951831 0.00030190489722367 -7.82770234433165e-20)
(0.132342687996408 0.000462803426595245 0)
(0.130022657349111 0.000653488021251857 -8.17483997283882e-20)
(0.126547081493649 0.000892318450025759 8.36458320681801e-20)
(0.121713587041633 0.00118515427819006 8.63424055555839e-20)
(0.114995166236027 0.00157773869144564 -8.91921603725123e-20)
(0.106080797628699 0.00210516904377743 0)
(0.0933921702255969 0.00285382608266077 0)
(0.0766261033495982 0.00498540802564847 3.39118842858301e-18)
(0.0689267853133351 0.00865495223097356 2.74980444400767e-17)
(0.0699137758441726 0.0143863680930275 1.02987841798741e-19)
(0.0737363203183046 0.0211346549099339 -2.51022688076069e-17)
(0.0799425911382011 0.0294623000632278 1.48263744656473e-21)
(0.0879003659496684 0.0393689473736735 0)
(0.0977380074921583 0.0512068931840225 0)
(0.11021126218032 0.0652905541180231 8.3026177597348e-20)
(0.12509252626093 0.0811780491995482 -7.99416234375861e-20)
(0.14201064551244 0.0982829314239368 6.82916801072249e-20)
(0.160696024786947 0.116166041659122 3.84028627445581e-17)
(0.181115011199483 0.134403844194313 -3.7490816494757e-17)
(0.20182627613744 0.151918470836485 0)
(0.221519365173666 0.168774029370116 -3.55854624779261e-20)
(0.240763115289553 0.186242930312874 3.54567767240322e-20)
(0.260430849041644 0.205247850163278 0)
(0.281731396140472 0.22684156860546 3.51392129127168e-17)
(0.30677353739741 0.252718101810945 0)
(0.341488841223004 0.285494629453842 3.19508140940422e-17)
(0.390729741216349 0.322598923579464 -3.52768715813128e-21)
(0.45523524808373 0.358249394226522 3.32483724169979e-21)
(0.540935913489364 0.387842838406068 2.32396967658039e-17)
(0.649920961384489 0.397138478432199 1.95845921806434e-17)
(0.779238363452485 0.361516176426274 -3.36746948958411e-17)
(0.8552546691325 0.248260041489516 7.77065037341136e-18)
(0.810043749156009 0.116943444563487 0)
(0.666928513468864 0.0308034908555312 1.17025518420179e-18)
(0.552236977619279 0.00346785266017585 -6.65092798141372e-22)
(0.637397781195486 -0.000416908915309399 4.59614660820634e-22)
(0.636661803788426 -0.0133357090407952 -4.56096584248006e-22)
(0.590400184349178 -0.0509889847811019 3.83490354861763e-18)
(0.378696973644771 -0.070155053077765 0)
(0.0350281864490651 0.00828476562413952 -3.03023167398766e-17)
(-0.120740010208489 0.0784452349848239 -4.21732775160672e-17)
(-0.110562685358023 0.0775459766790796 0)
(-0.0950101248433725 0.0735775043533894 0)
(-0.0843074965597162 0.0695928452846358 4.8222965591886e-17)
(-0.0807636699734044 0.0680183357761694 -5.13715464283484e-17)
(-0.0793112809122998 0.0660305247138014 5.33594191070656e-17)
(-0.0805891322397767 0.0658387103546847 -2.65944374514047e-20)
(-0.0833687320413595 0.0670482738606323 0)
(-0.0881541842380463 0.0702033710467258 -5.37250043720411e-17)
(-0.0951071452084806 0.0753281634649512 -5.14750917490361e-17)
(-0.103710485129588 0.0818840739414087 4.7228636795153e-20)
(-0.112824820769065 0.088463342433316 -4.49182718522511e-17)
(-0.121828454932194 0.0934652038159508 -4.12025763414026e-17)
(-0.130440190510334 0.0961270516172618 3.783736792385e-17)
(-0.138301405195709 0.0957897470262134 -3.46337032447237e-17)
(-0.145318369338493 0.0921253806424393 0)
(-0.151954221735529 0.0853593828240119 2.94905075291602e-17)
(-0.158360728328075 0.0763026200807028 5.37021398294779e-20)
(-0.164239673972819 0.0653723604190771 -2.58432190675013e-17)
(-0.169664229848525 0.0528781428421428 -1.22002554265097e-17)
(-0.175172803629348 0.039319517419881 -1.17656707178218e-17)
(-0.181958353913993 0.025135104490245 -5.50149446098991e-18)
(-0.193819366594765 0.0117619452513166 1.27768326116022e-18)
(-0.206975101299678 0.00494143755958383 -8.84345006798579e-24)
(-0.214027706285987 0.00277461706149181 -3.36849594545427e-20)
(-0.216251299812818 0.00126706850093873 -3.18699228419178e-20)
(-0.215747341279858 0.000329556615386729 0)
(-0.213039537599243 -0.000353412558989684 0)
(-0.208718125287551 -0.00087778593680093 -2.88173462635313e-20)
(-0.203063760125081 -0.00130032222408844 2.79549328489116e-20)
(-0.196323430392701 -0.00164867776290107 -2.76023282509808e-20)
(-0.188669523196772 -0.00193956821531272 2.70371232621377e-20)
(-0.180255517434581 -0.00218273125431574 0)
(-0.171209365523948 -0.00238486714032051 0)
(-0.161645532118226 -0.00255064698055646 0)
(-0.151665579249655 -0.00268394628715167 0)
(-0.141360928511832 -0.00278802718745623 1.32776387761892e-20)
(-0.130813620635036 -0.00286589503580723 -1.32284694757024e-20)
(-0.120097145217447 -0.00292030992459466 -1.3358486641433e-20)
(-0.109277027908402 -0.00295387968902898 2.67891274889309e-20)
(-0.0984113218289527 -0.00296903986179115 -1.34516597810396e-20)
(-0.0875511427822506 -0.00296807167874225 0)
(-0.0767411491380395 -0.00295308619596855 0)
(-0.0660200713172841 -0.00292602615260233 0)
(-0.055421215591125 -0.00288865829496046 0)
(-0.0449729879739155 -0.00284257758789067 -7.1067983979625e-21)
(-0.0346993839508573 -0.00278920987831418 -1.61483752540683e-15)
(-0.024620484094336 -0.00272981738598761 -1.64315499323719e-15)
(-0.0147528999767847 -0.00266550789055159 -7.35812396314066e-21)
(-0.00511024196598552 -0.00259725242264675 -7.4888605725637e-21)
(0.00429651783063099 -0.00252582546882301 7.54190191218874e-21)
(0.0134585095184394 -0.00245177731835432 0)
(0.0223687224876618 -0.00237570387364096 0)
(0.0310218286641662 -0.00229825406125626 0)
(0.0394137443495035 -0.00221986477838484 0)
(0.0475414617005142 -0.00214082378110343 0)
(0.0554028109029433 -0.00206137845772147 0)
(0.0629961432940451 -0.00198169988515589 0)
(0.0703202099383245 -0.00190188019031328 0)
(0.0773739574947962 -0.00182196175619193 0)
(0.0841563434999465 -0.00174193214574054 0)
(0.0906661719003645 -0.00166172637992102 -8.30597964013981e-21)
(0.0969019227582074 -0.00158122699627718 1.89317084980531e-15)
(0.102861587658465 -0.00150026400159465 1.9041638793062e-15)
(0.108542485786083 -0.00141861076907879 -8.54637166267795e-21)
(0.113941086791108 -0.00133598199567629 1.73118541698535e-20)
(0.119052781022113 -0.00125202258041804 -1.74688900938476e-20)
(0.123871675684061 -0.00116630470376635 1.77015380500784e-20)
(0.128390262985469 -0.00107830285972315 -1.78749706205979e-20)
(0.132599184928778 -0.000987394958846509 0)
(0.13648668247268 -0.000892806055562791 1.83515236419811e-20)
(0.140038366685574 -0.000793630279583087 -1.85566402131131e-20)
(0.14323617526232 -0.000688699425254649 0)
(0.146058348272829 -0.000576672421834287 0)
(0.148477172313513 -0.000455765718440912 0)
(0.150459946637538 -0.000323873058997701 0)
(0.151964101216929 -0.000178727538200954 0)
(0.152938234525147 -1.77483203738327e-05 0)
(0.153315689590766 0.00016556642625869 0)
(0.15301877650564 0.000376889766486087 -4.23057827863273e-20)
(0.151927867706638 0.000627697123423161 8.62496919289793e-20)
(0.149918995787009 0.000926286812432449 -8.82062641793675e-20)
(0.146768043996668 0.00129732305369858 4.51873774618611e-20)
(0.142273730148384 0.00175711960418497 0)
(0.135957040258022 0.00236463379809677 0)
(0.127508725128173 0.00318932835355943 0)
(0.115661646985423 0.00434292513045473 -5.34921831818128e-20)
(0.0997633823897248 0.00713982943141161 -3.57922496074506e-18)
(0.0908562630241152 0.0118212561010058 -7.28492151123271e-18)
(0.0902514590887834 0.0185766998551076 1.39538306573531e-17)
(0.0931361917560786 0.0264461546022452 5.18815917875381e-20)
(0.0988312888258311 0.0359413372084683 5.05914533069042e-17)
(0.106626182213271 0.0470453321186802 -4.74866012364815e-20)
(0.116566605986087 0.0600908294848577 4.55011204471828e-20)
(0.129296043978606 0.0752996054033338 2.24175459045229e-17)
(0.144684439930782 0.0922836016382311 -2.15911675472833e-17)
(0.162386668509955 0.1105022702456 -2.09763506774273e-17)
(0.18214094050691 0.129550692959725 -3.97512011468989e-20)
(0.203865979909414 0.149011809911823 4.81208140770479e-20)
(0.226313402894121 0.168062390164778 -1.92650057000731e-20)
(0.248207039110965 0.186868831392089 3.84912810898861e-20)
(0.26998175815787 0.20661161571844 -1.96804747677544e-17)
(0.292455852834608 0.228172471261793 1.90372737167899e-20)
(0.316818036009504 0.252567314025487 -1.94075341952881e-17)
(0.34509412285063 0.281270462428643 -9.14109360796396e-21)
(0.382758090593943 0.31606390914014 8.82527078778401e-21)
(0.434930682871001 0.354051157216565 1.98736596840348e-21)
(0.502482752847039 0.38920762876739 -1.88055879827642e-21)
(0.590331910303733 0.415750352365805 0)
(0.699761237705865 0.418975284905352 0)
(0.827743441201878 0.375835770801054 -2.45328163391782e-20)
(0.914159993095 0.261064752441086 -4.54544762515933e-18)
(0.900608078433594 0.130424456331501 0)
(0.795196082094946 0.0396765193304475 -7.30558510371523e-19)
(0.686062990869428 0.00740257365441712 0)
(0.709568515229532 0.00124707435030122 0)
(0.699665881698863 -0.0136836888535996 6.33655660043097e-19)
(0.660606376993973 -0.0529346567153447 5.77274290964842e-21)
(0.480400434899503 -0.0822963601140983 1.70511602522935e-21)
(0.126972213407671 -0.0172757694955457 2.08107940469911e-17)
(-0.0962053851968645 0.0698069981526732 2.929371568506e-17)
(-0.112800618563529 0.0786965581686741 0)
(-0.101464336050463 0.0776366405543782 0)
(-0.0921687847658594 0.0755568893951682 3.31126575203607e-17)
(-0.0895186727496492 0.0751649937175813 3.54754867549938e-17)
(-0.0889608927589798 0.0740240913494936 -3.67753843964147e-17)
(-0.0909694054338683 0.074434866786506 0)
(-0.094390173764424 0.0761661944889712 -3.7307985252744e-17)
(-0.099607720840573 0.0797400224780129 6.52648659533442e-22)
(-0.106635817309779 0.0850229369251409 -3.42860148371123e-17)
(-0.11488434437569 0.0913665154121783 3.17180214620532e-17)
(-0.123335343346384 0.0974025202344932 3.41576311245606e-22)
(-0.131561394362852 0.101633665576783 2.631576079462e-17)
(-0.139385579715181 0.103392002935591 -2.39016209085112e-17)
(-0.146591243319414 0.102149429691189 4.56608337805222e-20)
(-0.153165285243233 0.0976705793994558 -3.91077499270405e-20)
(-0.159527036092869 0.0901566531213879 0)
(-0.165753161250479 0.0803706186643163 1.73819530495867e-17)
(-0.171583110817389 0.0687557683171657 1.64018401241685e-17)
(-0.177104244528722 0.0556468310479194 0)
(-0.182768232336839 0.0415506417625305 -7.4736052094422e-18)
(-0.189424527565568 0.0269397903669227 2.78034999688054e-20)
(-0.199913407967563 0.0131717246306189 -8.48947396066102e-19)
(-0.210663569594705 0.00588999730161305 2.85139889649978e-24)
(-0.216123336251902 0.00318244237167384 -2.16865191579857e-20)
(-0.21750042495641 0.00130442741077822 8.89130137671271e-23)