# Residuals            
# Time                 	Ux                     	Uy                     	p                      	k                      	omega                  
5001                   	1.581882495512203e-06	1.349255480031577e-06	4.033820394997718e-06	4.611632786215098e-06	4.807020194430463e-08
5002                   	1.579958822640465e-06	1.344808503066684e-06	3.834042735844342e-06	4.605490884134884e-06	4.802088662948401e-08
5003                   	1.578014602871184e-06	1.340579934377526e-06	3.779350583264582e-06	4.599744465333813e-06	4.797087420064403e-08
5004                   	1.576071834612777e-06	1.336344522679466e-06	3.788465630101657e-06	4.594018190308040e-06	4.792084156574112e-08
5005                   	1.574133125672219e-06	1.332067523036807e-06	3.816966278698485e-06	4.588300385444106e-06	4.787087213568214e-08
5006                   	1.572196760659942e-06	1.327779965838668e-06	3.828886388721216e-06	4.582590329714010e-06	4.782100532804513e-08
5007                   	1.570262225071857e-06	1.323503193957889e-06	3.824081262565747e-06	4.576889277445476e-06	4.777121732845785e-08
5008                   	1.568329828072250e-06	1.319243047774837e-06	3.815556496233514e-06	4.571197267296559e-06	4.772148441327767e-08
5009                   	1.566399685719065e-06	1.314998362209866e-06	3.808154418649693e-06	4.565513149482156e-06	4.767181168717279e-08
5010                   	1.564471581941363e-06	1.310767994889052e-06	3.802690173996461e-06	4.559837033094202e-06	4.762219165396902e-08
5011                   	1.562545179672866e-06	1.306546695344435e-06	3.797147839936509e-06	4.554169029171796e-06	4.757261211668856e-08
5012                   	1.560621410994638e-06	1.302332553126764e-06	3.791759123788356e-06	4.548510951253390e-06	4.752306470098307e-08
5013                   	1.558699696821768e-06	1.298126668027354e-06	3.786586932782340e-06	4.542861838165333e-06	4.747355285574655e-08
5014                   	1.556780208391836e-06	1.293933334641547e-06	3.780992128514753e-06	4.537220728963316e-06	4.742408109765441e-08
5015                   	1.554862485595243e-06	1.289757483351840e-06	3.775471720284914e-06	4.531587142193442e-06	4.737464932687221e-08
5016                   	1.552946377175564e-06	1.285599701641139e-06	3.770169759450992e-06	4.525962008615165e-06	4.732526210734237e-08
5017                   	1.551032160965099e-06	1.281451989971142e-06	3.764921356262856e-06	4.520344772395745e-06	4.727591661004158e-08
5018                   	1.549119752493421e-06	1.277312702727262e-06	3.759640342825908e-06	4.514735321461027e-06	4.722660585595392e-08
5019                   	1.547209525431166e-06	1.273183706351747e-06	3.754310900970615e-06	4.509133296236191e-06	4.717733232380215e-08
5020                   	1.545301602407558e-06	1.269066279022756e-06	3.748964351956262e-06	4.503539810923035e-06	4.712809649374703e-08
5021                   	1.543395826180374e-06	1.264955912770621e-06	3.743604224189983e-06	4.497954745465138e-06	4.707890810599809e-08
5022                   	1.541492500072230e-06	1.260854418243414e-06	3.738243102351028e-06	4.492377132843235e-06	4.702976128765297e-08
5023                   	1.539591617774320e-06	1.256760060374359e-06	3.732879909755601e-06	4.486807420061748e-06	4.698065782102510e-08
5024                   	1.537692892003847e-06	1.252675924696250e-06	3.727477452170110e-06	4.481245632482765e-06	4.693158954733341e-08
5025                   	1.535796211614691e-06	1.248603320212644e-06	3.721918460705344e-06	4.475691510109189e-06	4.688255256545689e-08
5026                   	1.533902037982249e-06	1.244536479682180e-06	3.716438399831139e-06	4.470145568754673e-06	4.683356317934766e-08
5027                   	1.532009721714378e-06	1.240475703534495e-06	3.710953601731102e-06	4.464607762200932e-06	4.678461868066087e-08
5028                   	1.530119825717219e-06	1.236423172643239e-06	3.705447485117425e-06	4.459080253055202e-06	4.673571987227200e-08
5029                   	1.528231539897279e-06	1.232379324589107e-06	3.699905253812728e-06	4.453561306101702e-06	4.668686285976424e-08
5030                   	1.526345235358418e-06	1.228342766053412e-06	3.694341736422826e-06	4.448050400319081e-06	4.663805132354239e-08
5031                   	1.524461527260584e-06	1.224313527611851e-06	3.688736943380105e-06	4.442547802097174e-06	4.658929430012268e-08
5032                   	1.522579883775090e-06	1.220293900570930e-06	3.683094950652871e-06	4.437053496679682e-06	4.654058293960575e-08
5033                   	1.520700149837578e-06	1.216282934778671e-06	3.676251540775417e-06	4.431567127510931e-06	4.649197295580005e-08
5034                   	1.518823097675523e-06	1.212279365387875e-06	3.670498370377524e-06	4.426089391568923e-06	4.644341225364708e-08
5035                   	1.516947835580995e-06	1.208284229219860e-06	3.665790712627207e-06	4.420620214165959e-06	4.639487663169896e-08
5036                   	1.515075304417567e-06	1.204299035690481e-06	3.661607937861411e-06	4.415159600934805e-06	4.634636980300401e-08
5037                   	1.513204815633284e-06	1.200322130241760e-06	3.656271805177512e-06	4.409708666227703e-06	4.629790096422203e-08
5038                   	1.511336039111613e-06	1.196357361483038e-06	3.650501130703490e-06	4.404265557727038e-06	4.624950218917190e-08
5039                   	1.509469082264288e-06	1.192401295628256e-06	3.644403457427498e-06	4.398829807665208e-06	4.620114337948733e-08
5040                   	1.507604198822758e-06	1.188457638644523e-06	3.638242225052117e-06	4.393402345099693e-06	4.615281667800460e-08
5041                   	1.505741472536038e-06	1.184523155661850e-06	3.632078154572699e-06	4.387982573034307e-06	4.610454806142070e-08
5042                   	1.503880532775882e-06	1.180596181824555e-06	3.625933179845786e-06	4.382570187684397e-06	4.605631579854706e-08
5043                   	1.502021186312053e-06	1.176680114412501e-06	3.619846098825202e-06	4.377165094106105e-06	4.600811792238890e-08
5044                   	1.500163728185673e-06	1.172771135605077e-06	3.613774689952798e-06	4.371768110422503e-06	4.595995615140032e-08
5045                   	1.498308039004849e-06	1.168869445853525e-06	3.607712363367458e-06	4.366377758547117e-06	4.591183228934207e-08
5046                   	1.496454040334978e-06	1.164976651181520e-06	3.601661550172135e-06	4.360994198658369e-06	4.586374633849137e-08
5047                   	1.494601998271784e-06	1.161089545087117e-06	3.595619487982763e-06	4.355618364083539e-06	4.581570245806289e-08
5048                   	1.492752273444626e-06	1.157208832660261e-06	3.589593204569404e-06	4.350249756649923e-06	4.576769913560078e-08
5049                   	1.490904597848813e-06	1.153332305344490e-06	3.583637792295177e-06	4.344887947588260e-06	4.571973261833543e-08
5050                   	1.489059521005702e-06	1.149464208623846e-06	3.577677550837295e-06	4.339533790262348e-06	4.567180377836714e-08
5051                   	1.487216210370454e-06	1.145602544002723e-06	3.571718110215862e-06	4.334187319176635e-06	4.562391260566074e-08
5052                   	1.485374814164310e-06	1.141750608706869e-06	3.565771498218829e-06	4.328848041686572e-06	4.557606003175600e-08
5053                   	1.483535554527016e-06	1.137905452990767e-06	3.559832264880755e-06	4.323515878189040e-06	4.552825031114303e-08
5054                   	1.481698488704090e-06	1.134067216563877e-06	3.553893970805881e-06	4.318191833019107e-06	4.548048019793133e-08
5055                   	1.479863474217748e-06	1.130238681882234e-06	3.547950887262157e-06	4.312875888765055e-06	4.543274982440822e-08
5056                   	1.478030140928118e-06	1.126422328272763e-06	3.542005172465201e-06	4.307566890563976e-06	4.538506293843282e-08
5057                   	1.476198368546780e-06	1.122611890023645e-06	3.536065647797960e-06	4.302265249842622e-06	4.533743181825440e-08
5058                   	1.474368818503647e-06	1.118807040536966e-06	3.530144328584261e-06	4.296970216053383e-06	4.528984277805761e-08
5059                   	1.472540965601818e-06	1.115010511743052e-06	3.524246777673167e-06	4.291681825668253e-06	4.524229563587078e-08
5060                   	1.470714992183549e-06	1.111222929231092e-06	3.518377304553843e-06	4.286400170393114e-06	4.519479079556019e-08
5061                   	1.468891509041170e-06	1.107445031515601e-06	3.512510286119340e-06	4.281126329256711e-06	4.514732847397219e-08
5062                   	1.467070098975276e-06	1.103677918484875e-06	3.506649083662583e-06	4.275860576025579e-06	4.509991473777943e-08
5063                   	1.465251004617676e-06	1.099918657946705e-06	3.500802667509423e-06	4.270601777385964e-06	4.505255486498321e-08
5064                   	1.463434177044207e-06	1.096165664131382e-06	3.494959311164773e-06	4.265350291112245e-06	4.500524039261809e-08
5065                   	1.461619120428877e-06	1.092421507328770e-06	3.489120803719097e-06	4.260106602898013e-06	4.495797012213399e-08
5066                   	1.459805781278222e-06	1.088687230324888e-06	3.483294585160523e-06	4.254870252028823e-06	4.491075151672935e-08
5067                   	1.457994735473114e-06	1.084963214394206e-06	3.477503392585130e-06	4.249642711447427e-06	4.486359071145665e-08
5068                   	1.456185790423205e-06	1.081246619847037e-06	3.471752005549194e-06	4.244422781755043e-06	4.481647128965161e-08
5069                   	1.454378771411863e-06	1.077537803101947e-06	3.466010821146696e-06	4.239210258537516e-06	4.476940154433281e-08
5070                   	1.452573393135474e-06	1.073834513784851e-06	3.460279785885404e-06	4.234007058075090e-06	4.472237687248621e-08
5071                   	1.450769986076697e-06	1.070138069945570e-06	3.454564491135936e-06	4.228812235327479e-06	4.467540194520335e-08
5072                   	1.448968399691124e-06	1.066449763969691e-06	3.448869373487555e-06	4.223624858673538e-06	4.462846633674311e-08
5073                   	1.447168760483383e-06	1.062769124986167e-06	3.443188800162064e-06	4.218444050737740e-06	4.458156718372822e-08
5074                   	1.445370874939511e-06	1.059095683499748e-06	3.437526732169171e-06	4.213270192127442e-06	4.453470876855387e-08
5075                   	1.443575210167734e-06	1.055427993856774e-06	3.431853387480768e-06	4.208103316456003e-06	4.448789207354091e-08
5076                   	1.441781492565684e-06	1.051767845107446e-06	3.426185592576451e-06	4.202942699922315e-06	4.444111872850092e-08
5077                   	1.439989982325141e-06	1.048115127545424e-06	3.420534069539566e-06	4.197789147334473e-06	4.439438410642286e-08
5078                   	1.438200420500849e-06	1.044468558086860e-06	3.414893212850380e-06	4.192643314136956e-06	4.434770270381304e-08
5079                   	1.436412904244739e-06	1.040829620807421e-06	3.409318078096675e-06	4.187504161827212e-06	4.430106878079485e-08
5080                   	1.434627176180949e-06	1.037199539162564e-06	3.403770640324681e-06	4.182372018387924e-06	4.425450123232367e-08
5081                   	1.432843746403788e-06	1.033578490300166e-06	3.398263644605030e-06	4.177246954619109e-06	4.420798951365492e-08
5082                   	1.431062102234563e-06	1.029966128756292e-06	3.392780389136168e-06	4.172128433573681e-06	4.416153921069924e-08
5083                   	1.429282135258631e-06	1.026365932545883e-06	3.387300490414690e-06	4.167016990772714e-06	4.411514656801617e-08
5084                   	1.427504089411541e-06	1.022780162477705e-06	3.381874241411130e-06	4.161911834433615e-06	4.406882054281223e-08
5085                   	1.425727958297074e-06	1.019203915895717e-06	3.376493843954581e-06	4.156813480193425e-06	4.402255079937820e-08
5086                   	1.423953578968699e-06	1.015634461589262e-06	3.371160065776723e-06	4.151721588817064e-06	4.397633084897260e-08
5087                   	1.422181049482868e-06	1.012072179860253e-06	3.365857048643982e-06	4.146636493529269e-06	4.393015020451213e-08
5088                   	1.420410490706002e-06	1.008517950740669e-06	3.360583692812823e-06	4.141557721413023e-06	4.388400677433844e-08
5089                   	1.418642093206646e-06	1.004971868804502e-06	3.355338808484051e-06	4.136485826808380e-06	4.383789612377782e-08
5090                   	1.416875665246517e-06	1.001435538301321e-06	3.350113145953853e-06	4.131420569626749e-06	4.379182104843256e-08
5091                   	1.415111383415251e-06	9.979058434107891e-07	3.344900799660253e-06	4.126362529905930e-06	4.374578558249176e-08
5092                   	1.413348765988073e-06	9.943817307291043e-07	3.339694758951385e-06	4.121311220896688e-06	4.369978520011305e-08
5093                   	1.411587991676034e-06	9.908674399593034e-07	3.334498729511539e-06	4.116266727926267e-06	4.365381844697871e-08
5094                   	1.409829327826985e-06	9.873622327233436e-07	3.329309952305643e-06	4.111229278643710e-06	4.360788196945146e-08
5095                   	1.408072911723708e-06	9.838624888032031e-07	3.324129112040760e-06	4.106200761639559e-06	4.356197617204182e-08
5096                   	1.406318299955006e-06	9.803714215772078e-07	3.318964508139605e-06	4.101181331940756e-06	4.351610210737834e-08
5097                   	1.404565344948411e-06	9.768899008090019e-07	3.313808973482142e-06	4.096172959879211e-06	4.347025989708287e-08
5098                   	1.402814195169753e-06	9.734138309486577e-07	3.308665166287922e-06	4.091171718488420e-06	4.342445085962844e-08
5099                   	1.401064956859358e-06	9.699442433766337e-07	3.303541669280601e-06	4.086177778562850e-06	4.337867221095607e-08
5100                   	1.399317461384331e-06	9.664878737963399e-07	3.298427415651070e-06	4.081190606888548e-06	4.333292507634606e-08
5101                   	1.397571708687182e-06	9.630418797750912e-07	3.293301410076882e-06	4.076210707193035e-06	4.328719965896181e-08
5102                   	1.395828156877063e-06	9.596031386963247e-07	3.288155027413820e-06	4.071237365736689e-06	4.324151320351281e-08
5103                   	1.394086807545167e-06	9.561757166378720e-07	3.283102293690678e-06	4.066270262065977e-06	4.319586282423326e-08
5104                   	1.392347440768962e-06	9.527556426582597e-07	3.278099577705263e-06	4.061309010543458e-06	4.315025111200320e-08
5105                   	1.390610210230525e-06	9.493504999423276e-07	3.273080411416402e-06	4.056353613425741e-06	4.310467137413688e-08
5106                   	1.388874591797206e-06	9.459586147552846e-07	3.268002717290704e-06	4.051406217498957e-06	4.305912604645204e-08
5107                   	1.387140569350692e-06	9.425829320645850e-07	3.263260186395372e-06	4.046466527805062e-06	4.301361592751246e-08
5108                   	1.385408774907055e-06	9.392178986355694e-07	3.258459922576834e-06	4.041533763401151e-06	4.296814080274156e-08
5109                   	1.383679133351647e-06	9.358663998710825e-07	3.253498153213941e-06	4.036606766582900e-06	4.292269582343299e-08
5110                   	1.381951518583519e-06	9.325255358923608e-07	3.248536853413373e-06	4.031685900266139e-06	4.287728411643243e-08
5111                   	1.380225483200048e-06	9.291944854259209e-07	3.243612936299294e-06	4.026771661554960e-06	4.283190762131799e-08
5112                   	1.378501366965644e-06	9.258712024117724e-07	3.238680127515594e-06	4.021863523580037e-06	4.278656435130051e-08
5113                   	1.376779051566877e-06	9.225557497009686e-07	3.233729657661119e-06	4.016963354988809e-06	4.274125337998681e-08
5114                   	1.375058306660051e-06	9.192534139790671e-07	3.228760572005731e-06	4.012070185451576e-06	4.269596427788017e-08
5115                   	1.373339285681432e-06	9.159586895434187e-07	3.223766088197093e-06	4.007182774439048e-06	4.265069138098316e-08
5116                   	1.371622301563344e-06	9.126708627441985e-07	3.218710654245671e-06	4.002301161914396e-06	4.260545777905524e-08
5117                   	1.369907235860235e-06	9.093920087492960e-07	3.213607047385536e-06	3.997425200701593e-06	4.256026404515911e-08
5118                   	1.368194197413063e-06	9.061210562127607e-07	3.208490472190228e-06	3.992554983207130e-06	4.251510072530509e-08
5119                   	1.366483238347170e-06	9.028591236963562e-07	3.203410881522484e-06	3.987692269454577e-06	4.246996825729714e-08
5120                   	1.364773973541248e-06	8.996072393854158e-07	3.198276224337430e-06	3.982835233452134e-06	4.242487518459216e-08
5121                   	1.363066422647248e-06	8.963655719056602e-07	3.193156583857320e-06	3.977983677448273e-06	4.237980290512233e-08
5122                   	1.361361174927558e-06	8.931312724450812e-07	3.188104155863912e-06	3.973139994736208e-06	4.233479395914318e-08
5123                   	1.359657820109287e-06	8.899060092935123e-07	3.182970906764086e-06	3.968302727092947e-06	4.228981853893943e-08
5124                   	1.357956318226514e-06	8.866881449318822e-07	3.177863966227044e-06	3.963471252676287e-06	4.224487425534110e-08
5125                   	1.356256560253132e-06	8.834818347674558e-07	3.172773747438931e-06	3.958645900305491e-06	4.219995864777471e-08
5126                   	1.354558348313983e-06	8.802861197693229e-07	3.167660525103862e-06	3.953828722896104e-06	4.215507298199783e-08
5127                   	1.352861948494182e-06	8.771053673529392e-07	3.162511465691782e-06	3.949019118184869e-06	4.211021594967750e-08
5128                   	1.351167363977423e-06	8.739342728090398e-07	3.157337114094384e-06	3.944218449962760e-06	4.206538710083242e-08
5129                   	1.349474775251164e-06	8.707725822912034e-07	3.152147699775608e-06	3.939425852946651e-06	4.202058658869029e-08
5130                   	1.347784274905135e-06	8.676221997238565e-07	3.146947592724381e-06	3.934639229729984e-06	4.197581473050065e-08
5131                   	1.346095889113691e-06	8.644806994160837e-07	3.141737080092847e-06	3.929859196208714e-06	4.193107465106844e-08
5132                   	1.344409571850935e-06	8.613493203435011e-07	3.136521489276329e-06	3.925084924320414e-06	4.188637183899772e-08
5133                   	1.342725203368908e-06	8.582267186990543e-07	3.131321388089611e-06	3.920316397031397e-06	4.184169232929611e-08
5134                   	1.341042320580653e-06	8.551132072406366e-07	3.126118281560024e-06	3.915554830682441e-06	4.179703579840690e-08
5135                   	1.339360989251268e-06	8.520127470229393e-07	3.120885144772522e-06	3.910800470872986e-06	4.175240537958908e-08
5136                   	1.337681940288782e-06	8.489217340578541e-07	3.115651204980628e-06	3.906051922787309e-06	4.170780296904502e-08
5137                   	1.336005167906888e-06	8.458385343758839e-07	3.110413091320769e-06	3.901309336721224e-06	4.166322996609698e-08
5138                   	1.334330314466456e-06	8.427632403316552e-07	3.105205559928456e-06	3.896572593143515e-06	4.161868765841905e-08
5139                   	1.332657284040304e-06	8.396997548910353e-07	3.100002740242449e-06	3.891843255157613e-06	4.157417879624075e-08
5140                   	1.330985738884799e-06	8.366456399299114e-07	3.094794112755723e-06	3.887119913548578e-06	4.152971216558428e-08
5141                   	1.329315853106123e-06	8.336023758733786e-07	3.089239373644759e-06	3.882402350969777e-06	4.148527670536714e-08
5142                   	1.327647725493436e-06	8.305709179664738e-07	3.084354626345309e-06	3.877690427970820e-06	4.144087336060110e-08
5143                   	1.325981497501058e-06	8.275481009526944e-07	3.079217383022971e-06	3.872983691481990e-06	4.139649948415630e-08
5144                   	1.324317274671054e-06	8.245321663421977e-07	3.073852741934659e-06	3.868282253774101e-06	4.135215961516459e-08
5145                   	1.322655144549593e-06	8.215254066729667e-07	3.068631257805538e-06	3.863587161655358e-06	4.130785065494030e-08
5146                   	1.320994755921364e-06	8.185320090677251e-07	3.063434554156760e-06	3.858897274456516e-06	4.126357207373337e-08
5147                   	1.319336663575933e-06	8.155503498291422e-07	3.058265352178666e-06	3.854213292551027e-06	4.121932562699918e-08
5148                   	1.317680347889024e-06	8.125872481437016e-07	3.053106843007829e-06	3.849535322730470e-06	4.117510836466164e-08
5149                   	1.316025551288013e-06	8.096353940423465e-07	3.047938004830017e-06	3.844864087147132e-06	4.113092062817076e-08
5150                   	1.314372680744399e-06	8.066932936746651e-07	3.042750858194833e-06	3.840199620842282e-06	4.108676327280666e-08
5151                   	1.312721714964763e-06	8.037605199749799e-07	3.037549365634559e-06	3.835540929303268e-06	4.104263916907734e-08
5152                   	1.311072502983506e-06	8.008379533521842e-07	3.032339175405095e-06	3.830888928932984e-06	4.099854617563915e-08
5153                   	1.309425367284837e-06	7.979244663451310e-07	3.027151195617518e-06	3.826242387055324e-06	4.095448398378510e-08
5154                   	1.307779754030104e-06	7.950204482451795e-07	3.021967836838359e-06	3.821601190026906e-06	4.091045408853224e-08
5155                   	1.306135921728079e-06	7.921269935516914e-07	3.016820060581626e-06	3.816965915642278e-06	4.086645416303543e-08
5156                   	1.304494033396762e-06	7.892399255695727e-07	3.011694598786507e-06	3.812337335785833e-06	4.082248996554438e-08
5157                   	1.302853917725170e-06	7.863616030993897e-07	3.006567846041121e-06	3.807713986078978e-06	4.077856157325634e-08
5158                   	1.301215799182127e-06	7.834942718834420e-07	3.001443374813483e-06	3.803096021092902e-06	4.073466417679643e-08
5159                   	1.299579549373696e-06	7.806368672239084e-07	2.996322086341705e-06	3.798483303460648e-06	4.069079919779677e-08
5160                   	1.297945049941618e-06	7.777888382364208e-07	2.991207155240821e-06	3.793876379406740e-06	4.064697644907420e-08
5161                   	1.296312722134076e-06	7.749496241818300e-07	2.986099882485449e-06	3.789275804904359e-06	4.060318504727925e-08
5162                   	1.294682341624725e-06	7.721200484485212e-07	2.980937516304637e-06	3.784680634315153e-06	4.055942895772212e-08
5163                   	1.293053560368773e-06	7.693033836915434e-07	2.975889017384102e-06	3.780091054190067e-06	4.051568088436068e-08
5164                   	1.291426764713296e-06	7.664950917620347e-07	2.970891801907327e-06	3.775506745272070e-06	4.047194830968831e-08
5165                   	1.289802052679946e-06	7.636946849297169e-07	2.965900739343532e-06	3.770928250359471e-06	4.042824287883510e-08
5166                   	1.288179217930709e-06	7.609043888036826e-07	2.960877075046770e-06	3.766356919872271e-06	4.038456749520356e-08
5167                   	1.286558263056766e-06	7.581257715310197e-07	2.955795342786071e-06	3.761790854171344e-06	4.034092295517632e-08
5168                   	1.284938941663504e-06	7.553603059693415e-07	2.950688390657841e-06	3.757230464498718e-06	4.029730994073287e-08
5169                   	1.283321428609566e-06	7.526105391235348e-07	2.945578215950751e-06	3.752676317561690e-06	4.025373118350568e-08
5170                   	1.281705809995724e-06	7.498717197150468e-07	2.940462613919816e-06	3.748126884451178e-06	4.021017582394022e-08
5171                   	1.280091783182139e-06	7.471410378422990e-07	2.935200003097327e-06	3.743582633677380e-06	4.016665140776671e-08
5172                   	1.278479634378426e-06	7.444202327231139e-07	2.929779015466278e-06	3.739043349513683e-06	4.012316145492578e-08
5173                   	1.276869519622066e-06	7.417101850938985e-07	2.924450126637756e-06	3.734510540591194e-06	4.007971316368837e-08
5174                   	1.275261211668739e-06	7.390133325236758e-07	2.919268264648289e-06	3.729982320989227e-06	4.003630062570069e-08
5175                   	1.273654721206009e-06	7.363266586309224e-07	2.914178724017220e-06	3.725458703958538e-06	3.999292092806750e-08
5176                   	1.272050502481227e-06	7.336505546866179e-07	2.909125078411361e-06	3.720940065959061e-06	3.994957387334849e-08
5177                   	1.270447922817200e-06	7.309830341149827e-07	2.904106672837074e-06	3.716427187680968e-06	3.990625850538548e-08
5178                   	1.268847391318773e-06	7.283283732728990e-07	2.899112749494147e-06	3.711919602655092e-06	3.986297423019239e-08
5179                   	1.267248694744164e-06	7.256840327853438e-07	2.894145166090038e-06	3.707417812282782e-06	3.981972760702850e-08
5180                   	1.265651964620763e-06	7.230481722413194e-07	2.889190636583283e-06	3.702922224627309e-06	3.977651225765881e-08
5181                   	1.264056963840248e-06	7.204205675751648e-07	2.884250722940330e-06	3.698431148970629e-06	3.973332816776614e-08
5182                   	1.262463652673128e-06	7.178025141304120e-07	2.879318529050528e-06	3.693944735962241e-06	3.969017340655275e-08
5183                   	1.260872062483725e-06	7.151990579076489e-07	2.874400066488480e-06	3.689463303365375e-06	3.964704908972170e-08
5184                   	1.259282147484296e-06	7.126042354567454e-07	2.869495734104610e-06	3.684987472077454e-06	3.960395574639964e-08
5185                   	1.257694360360389e-06	7.100203391707944e-07	2.864608662870645e-06	3.680517305789210e-06	3.956089183159430e-08
5186                   	1.256109452748257e-06	7.074479471063657e-07	2.859739858983235e-06	3.676053074083988e-06	3.951785734323680e-08
5187                   	1.254526782067207e-06	7.048857857122853e-07	2.854891240548065e-06	3.671594528465052e-06	3.947485117007130e-08
5188                   	1.252946421869994e-06	7.023362648722711e-07	2.850053875315774e-06	3.667142299355667e-06	3.943187304559766e-08
5189                   	1.251368153537635e-06	6.998033130841145e-07	2.845230550853672e-06	3.662695155569146e-06	3.938892317003670e-08
5190                   	1.249791770180402e-06	6.972854597022606e-07	2.840420369669341e-06	3.658252927645379e-06	3.934601697544372e-08
5191                   	1.248217290393418e-06	6.947809914507611e-07	2.835633559867758e-06	3.653815859047564e-06	3.930313998717179e-08
5192                   	1.246644562469378e-06	6.922892886601602e-07	2.830864223907591e-06	3.649383304151882e-06	3.926026292604186e-08
5193                   	1.245073701925899e-06	6.898102277048783e-07	2.826282105041105e-06	3.644955501778004e-06	3.921741931745691e-08
5194                   	1.243504917417930e-06	6.873425423454561e-07	2.821760684553630e-06	3.640532520689253e-06	3.917461363088794e-08
5195                   	1.241937813488900e-06	6.848829986341907e-07	2.817179703138149e-06	3.636114302231766e-06	3.913184125032845e-08
5196                   	1.240372267665121e-06	6.824343948502508e-07	2.812527648531884e-06	3.631701642706865e-06	3.908910118482922e-08
5197                   	1.238808522076987e-06	6.799958569086399e-07	2.807822670971288e-06	3.627294240477750e-06	3.904638784780854e-08
5198                   	1.237246629435167e-06	6.775668060859920e-07	2.803109349482859e-06	3.622891550385852e-06	3.900369039760039e-08
5199                   	1.235686433068787e-06	6.751460178245483e-07	2.798461382096029e-06	3.618493658634342e-06	3.896102004650364e-08
5200                   	1.234127896004772e-06	6.727371865321531e-07	2.793804709422980e-06	3.614100900264903e-06	3.891837763521339e-08
5201                   	1.232571042002293e-06	6.703421945301799e-07	2.789101496612410e-06	3.609713893550118e-06	3.887576608379483e-08
5202                   	1.231016365803097e-06	6.679557469992299e-07	2.784297055049464e-06	3.605332378432033e-06	3.883318069987818e-08
5203                   	1.229463602956701e-06	6.655798747610990e-07	2.779524804069402e-06	3.600956074088809e-06	3.879061764452944e-08
5204                   	1.227912810945322e-06	6.632145916554120e-07	2.774769405071469e-06	3.596584612472597e-06	3.874807805850358e-08
5205                   	1.226363526195764e-06	6.608586424921535e-07	2.770022770585290e-06	3.592217850265818e-06	3.870556463799917e-08
5206                   	1.224815764597010e-06	6.585142084810060e-07	2.765276943867200e-06	3.587855333353461e-06	3.866307679520520e-08
5207                   	1.223269811794710e-06	6.561812904551458e-07	2.760520667475364e-06	3.583497448813461e-06	3.862060115864191e-08
5208                   	1.221725733678116e-06	6.538620852728334e-07	2.755726234541223e-06	3.579143921811260e-06	3.857815375205909e-08
5209                   	1.220183431821066e-06	6.515556821238120e-07	2.750972296888393e-06	3.574795324705018e-06	3.853573930060491e-08
5210                   	1.218642859958576e-06	6.492635138421575e-07	2.746212343110173e-06	3.570452368489171e-06	3.849336114494534e-08
5211                   	1.217104152975964e-06	6.469826539505348e-07	2.741439104516189e-06	3.566114390818011e-06	3.845101881723304e-08
5212                   	1.215567118346921e-06	6.447125564529972e-07	2.736668910858390e-06	3.561781336619719e-06	3.840870675175719e-08
5213                   	1.214031692935832e-06	6.424529332797853e-07	2.731914193295929e-06	3.557453755197422e-06	3.836642463744321e-08
5214                   	1.212497810317874e-06	6.402041647241570e-07	2.727178327123418e-06	3.553131765668941e-06	3.832417262761579e-08
5215                   	1.210965575556968e-06	6.379644124876540e-07	2.722471242180094e-06	3.548814008805696e-06	3.828195007690738e-08
5216                   	1.209435075794239e-06	6.357346278727996e-07	2.717774938735346e-06	3.544500792731902e-06	3.823975674674428e-08
5217                   	1.207906376929199e-06	6.335158127451261e-07	2.713095951980358e-06	3.540191731345428e-06	3.819759188866715e-08
5218                   	1.206379556061465e-06	6.313095905049043e-07	2.708431958071878e-06	3.535887610250435e-06	3.815545521316329e-08
5219                   	1.204854688716829e-06	6.291124533467987e-07	2.703773903457090e-06	3.531589096226906e-06	3.811334647878861e-08
5220                   	1.203331592087467e-06	6.269237925859210e-07	2.699167016023463e-06	3.527294876709774e-06	3.807126592556638e-08
5221                   	1.201810455299601e-06	6.247456110023136e-07	2.694584513146332e-06	3.523005554178089e-06	3.802921347544704e-08
5222                   	1.200290868457093e-06	6.225766937836517e-07	2.690003869586152e-06	3.518720465647869e-06	3.798718827975442e-08