1.00000000000453e-06 	1.00195556483898 	0 	0.921345249269728 	0.000211862854934658 	1568.94204930642
1.00000000000453e-06 	1.00593833258374 	0 	0.921375580586462 	0.00165522228419703 	705.336425188249
1.00000000000453e-06 	1.01006700077429 	0 	0.921470946196377 	0.00519849478807741 	179.923071840381
1.00000000000453e-06 	1.0143469141712 	0 	0.921686612953765 	0.00970501708948168 	89.6260020884221
1.00000000000453e-06 	1.01878361332929 	0 	0.922052896151806 	0.0135584877138298 	55.1462484391477
1.00000000000453e-06 	1.02338284177015 	-3.46944695195361e-18 	0.922559208591326 	0.0166328404184385 	36.8794490811272
1.00000000000453e-06 	1.02815055341735 	-6.93889390390723e-18 	0.92318151985139 	0.0193410354702727 	26.412624684135
1.00000000000453e-06 	1.03309292030413 	-6.93889390390723e-18 	0.923899699554583 	0.0218235085811214 	20.0720701973675
1.00000000000453e-06 	1.03821634056339 	-6.93889390390723e-18 	0.92469911532492 	0.0241042574664805 	15.9801781270331
1.00000000000453e-06 	1.04352744671036 	-1.04083408558608e-17 	0.925570904338234 	0.0261923536581345 	13.1748078174768
1.00000000000453e-06 	1.04903311422874 	-1.04083408558608e-17 	0.926510566010932 	0.0281011009765822 	11.151035231203
1.00000000000453e-06 	1.05474047047132 	-6.93889390390723e-18 	0.927516041414624 	0.0298467158711511 	9.63044844270904
1.00000000000453e-06 	1.06065690388671 	-3.46944695195361e-18 	0.928586502765194 	0.0314455999211953 	8.45057019373453
1.00000000000453e-06 	1.06679007358401 	-3.46944695195361e-18 	0.929721737368387 	0.0329128831577981 	7.51134192286756
1.00000000000453e-06 	1.07314791924792 	-6.93889390390723e-18 	0.930921811650591 	0.0342619001743488 	6.74814880189268
1.00000000000453e-06 	1.07973867141705 	-3.46944695195361e-18 	0.932186872428182 	0.0355041296777083 	6.11752529396206
1.00000000000453e-06 	1.08657086213875 	0 	0.933517027437546 	0.0366493267206473 	5.58919456933297
1.00000000000453e-06 	1.09365333601424 	0 	0.93491227285676 	0.0377057166265993 	5.14142782093277
1.00000000000453e-06 	1.10099526164836 	3.46944695195361e-18 	0.936372448156441 	0.0386801932234553 	4.75822606491559
1.00000000000453e-06 	1.10860614351884 	6.93889390390723e-18 	0.937897207035638 	0.0395784992190287 	4.4275456029071
1.00000000000453e-06 	1.11649583428022 	3.46944695195361e-18 	0.93948599929032 	0.040405382169978 	4.14014422295981
1.00000000000453e-06 	1.12467454751866 	6.93889390390723e-18 	0.941138062435415 	0.0411647262760241 	3.88880910389785
1.00000000000453e-06 	1.13315287097387 	1.73472347597681e-17 	0.942852422720568 	0.0418596629106965 	3.6678264502354
1.00000000000453e-06 	1.1419417802455 	2.08166817117217e-17 	0.944627904305493 	0.0424926633948402 	3.47260840063814
1.00000000000453e-06 	1.15105265300152 	1.38777878078145e-17 	0.946463144862417 	0.0430656173026327 	3.29942486991026
1.00000000000453e-06 	1.1604972837072 	1.04083408558608e-17 	0.948356615572592 	0.0435798991964666 	3.14520706756392
1.00000000000453e-06 	1.17028789889366 	1.38777878078145e-17 	0.950306643188552 	0.0440364263233491 	3.00740106431897
1.00000000000453e-06 	1.1804371729856 	1.73472347597681e-17 	0.952311431739695 	0.0444357095164812 	2.88385703631918
1.00000000000453e-06 	1.19095824470904 	2.42861286636753e-17 	0.954369081594673 	0.0447778993213733 	2.77274445137159
1.00000000000453e-06 	1.20186473410003 	2.42861286636753e-17 	0.956477603796591 	0.045062829175524 	2.67248648176027
1.00000000000453e-06 	1.21317076013637 	2.08166817117217e-17 	0.958634927774461 	0.0452900572788069 	2.58170892785746
1.00000000000453e-06 	1.22489095901542 	2.08166817117217e-17 	0.960838901273847 	0.0454589085661105 	2.49920027462872
1.00000000000453e-06 	1.23704050310128 	2.08166817117217e-17 	0.96308728400359 	0.0455685179399169 	2.4238804227545
1.00000000000453e-06 	1.24963512056619 	2.42861286636753e-17 	0.965377738979145 	0.0456178757231704 	2.35477631234744
1.00000000000453e-06 	1.26269111575139 	2.77555756156289e-17 	0.967707822870008 	0.0456058761017431 	2.29100317802035
1.00000000000453e-06 	1.27622539027388 	2.77555756156289e-17 	0.970074973932383 	0.0455313689329584 	2.23175055063087
1.00000000000453e-06 	1.29025546490643 	2.77555756156289e-17 	0.972476498763335 	0.0453932148808415 	2.17627231946481
1.00000000000453e-06 	1.30479950225895 	2.77555756156289e-17 	0.974909561285261 	0.0451903436307401 	2.12388020270258
1.00000000000453e-06 	1.31987633029101 	3.12250225675825e-17 	0.977371176708207 	0.0449218147063409 	2.07393996864092
1.00000000000453e-06 	1.33550546668544 	3.81639164714898e-17 	0.979858211512028 	0.0445868800642241 	2.02586979773817
1.00000000000453e-06 	1.35170714411495 	3.81639164714898e-17 	0.982367389205469 	0.044185047324981 	1.97914025728718
1.00000000000453e-06 	1.3685023364343 	3.81639164714898e-17 	0.984895301742164 	0.0437161423494317 	1.93327544526529
1.00000000000453e-06 	1.38591278583198 	4.16333634234434e-17 	0.987438426837008 	0.0431803699383129 	1.88785494231264
1.00000000000453e-06 	1.40396103097652 	4.16333634234434e-17 	0.989993150627308 	0.0425783714942047 	1.84251626678493
1.00000000000453e-06 	1.42267043619387 	3.81639164714898e-17 	0.992555793833873 	0.0419112783171238 	1.79695752968561
1.00000000000453e-06 	1.44206522171365 	3.12250225675825e-17 	0.995122639256343 	0.0411807589523593 	1.75093994343512
1.00000000000453e-06 	1.46217049502345 	3.12250225675825e-17 	0.997689958705906 	0.0403890586785642 	1.70428976193913
1.00000000000453e-06 	1.48301228337162 	2.77555756156289e-17 	1.00025403802677 	0.039539028709391 	1.65689915908435
1.00000000000453e-06 	1.50461756746086 	2.42861286636753e-17 	1.00281119921458 	0.0386341422678497 	1.60872557459678
1.00000000000453e-06 	1.52701431637603 	2.77555756156289e-17 	1.00535781854922 	0.0376784946566712 	1.55978919484799
1.00000000000453e-06 	1.55023152379144 	3.46944695195361e-17 	1.00789033966822 	0.0366767847434987 	1.51016843949385
1.00000000000453e-06 	1.57429924550461 	3.81639164714898e-17 	1.01040528083425 	0.0356342757468958 	1.45999353284388
1.00000000000453e-06 	1.59924863834497 	3.46944695195361e-17 	1.01289923641355 	0.0345567337651112 	1.40943841923821
1.00000000000453e-06 	1.62511200050782 	4.16333634234434e-17 	1.01536887370271 	0.0334503431747664 	1.35871143874192
1.00000000000453e-06 	1.65192281336593 	4.5102810375397e-17 	1.01781092704041 	0.032321598851465 	1.30804532462924
1.00000000000453e-06 	1.67971578481283 	3.81639164714898e-17 	1.0202221912961 	0.0311771761424433 	1.25768721190919
1.00000000000453e-06 	1.70852689419381 	3.81639164714898e-17 	1.02259951710494 	0.0300237807800186 	1.20788944353754
1.00000000000453e-06 	1.73839343888296 	4.16333634234434e-17 	1.02493981106519 	0.0288679824250577 	1.15890201299617
1.00000000000453e-06 	1.76935408256639 	4.5102810375397e-17 	1.02724004504486 	0.0277160370297379 	1.11096745393075
1.00000000000453e-06 	1.80144890529426 	4.85722573273506e-17 	1.02949727827025 	0.0265737044556527 	1.06431877177403
1.00000000000453e-06 	1.83471945536634 	4.85722573273506e-17 	1.03170869422651 	0.0254460684566538 	1.01918047677393
1.00000000000453e-06 	1.86920880311829 	4.5102810375397e-17 	1.03387166393225 	0.0243373659691179 	0.975771939458535
1.00000000000453e-06 	1.9049615966783 	5.20417042793042e-17 	1.03598387270501 	0.0232508319525425 	0.934311382991386
1.00000000000453e-06 	1.94202411976624 	5.8702771376512e-17 	1.03804324157932 	0.0221885639035961 	0.895018147431894
1.00000000001227e-06 	1.98044435161019 	1.38777878078145e-17 	1.04004755633128 	0.0211515585361751 	0.858115965080646
1.00000000001227e-06 	2.02024009608346 	1.38777878078145e-17 	1.0419791808065 	0.0201481454861837 	0.824098019153319
1.00000000001227e-06 	2.06000503604194 	6.93889390390723e-18 	1.04379205982462 	0.0192009209724617 	0.793849386095916
1.00000000001227e-06 	2.09836474743797 	0 	1.04545005274013 	0.0183267021737997 	0.767885068726371
1.00000000001227e-06 	2.13536888877258 	0 	1.04695605346652 	0.0175223569541467 	0.745963184700355
1.00000000001227e-06 	2.17106536369585 	3.46944695195361e-18 	1.04832768630402 	0.0167779654279186 	0.72762133598323
1.00000000001227e-06 	2.20550038302045 	3.46944695195361e-18 	1.04958016002701 	0.0160853910248073 	0.71247602555025
1.00000000001227e-06 	2.23871852454379 	-6.93889390390723e-18 	1.05072654230686 	0.0154380342691317 	0.700218100199779
1.00000000001227e-06 	2.27076279075614 	-1.38777878078145e-17 	1.05177815403496 	0.0148305781561502 	0.690606018221722
1.00000000001227e-06 	2.30167466450941 	-1.38777878078145e-17 	1.05274483198429 	0.0142587521665253 	0.68345825634546
1.00000000001227e-06 	2.33149416271873 	-1.04083408558608e-17 	1.05363514566579 	0.0137191267847977 	0.678645805505218
1.00000000001227e-06 	2.36025988816627 	-1.04083408558608e-17 	1.05445658152835 	0.0132089419644583 	0.676085450789215
1.00000000001227e-06 	2.38800907947441 	-1.38777878078145e-17 	1.05521569717845 	0.0127259684135508 	0.675734257182691
1.00000000001227e-06 	2.41477765931296 	-1.38777878078145e-17 	1.05591825104033 	0.0122683982529147 	0.677585440908849
1.00000000001227e-06 	2.44060028090273 	-1.38777878078145e-17 	1.05656931216108 	0.0118347606595071 	0.681665634310675
1.00000000001227e-06 	2.46551037287587 	-1.38777878078145e-17 	1.05717335368974 	0.0114238579948325 	0.688033453897956
1.00000000001227e-06 	2.48954018255081 	-1.38777878078145e-17 	1.05773433277237 	0.0110347182540248 	0.696779240102291
1.00000000001227e-06 	2.512720817678 	-1.38777878078145e-17 	1.05825575904812 	0.0106665602036304 	0.708025832032264
1.00000000001227e-06 	2.53508228671037 	-1.38777878078145e-17 	1.05874075352327 	0.0103187681494292 	0.721930252274063
1.00000000001227e-06 	2.55665353765073 	-1.04083408558608e-17 	1.05919209929972 	0.00999087380024617 	0.738686191563062
1.00000000001227e-06 	2.57746249552637 	-1.04083408558608e-17 	1.05961228540549 	0.00968254312464412 	0.75852719140363
1.00000000001227e-06 	2.59753609853934 	-1.04083408558608e-17 	1.06000354479146 	0.00939356641754533 	0.781730418016291
1.00000000001227e-06 	2.6169003329393 	-6.93889390390723e-18 	1.06036788740579 	0.00912385000312047 	0.808620898892316
1.00000000001227e-06 	2.6355802666639 	-1.38777878078145e-17 	1.06070712912347 	0.00887340810959974 	0.839576050654396
1.00000000001227e-06 	2.6536000817905 	-2.08166817117217e-17 	1.06102291718832 	0.00864235348085339 	0.875030262304067
1.00000000001227e-06 	2.67098310584103 	-2.08166817117217e-17 	1.0613167527131 	0.00843088526839035 	0.915479212275664
1.00000000001227e-06 	2.68775184198057 	-2.77555756156289e-17 	1.06159001067666 	0.00823927271819021 	0.961483496483642
1.00000000001227e-06 	2.7039279981488 	-3.46944695195361e-17 	1.0618439577542 	0.00806783318737148 	1.01367104042201
1.00000000001227e-06 	2.71953251516198 	-3.46944695195361e-17 	1.06207976821684 	0.00791690317005812 	1.07273768431672
1.00000000001227e-06 	2.73458559382185 	-3.46944695195361e-17 	1.06229853804214 	0.00778680136497625 	1.13944530200256
1.00000000001227e-06 	2.74910672106653 	-3.46944695195361e-17 	1.06250129729389 	0.00767778346118834 	1.21461688990589
1.00000000001227e-06 	2.76311469519732 	-3.46944695195361e-17 	1.06268902076398 	0.00758998930587864 	1.29912829840107
1.00000000001227e-06 	2.776627650214 	-3.46944695195361e-17 	1.0628626368328 	0.00752338443749543 	1.39389672613609
1.00000000001227e-06 	2.78966307929018 	-3.46944695195361e-17 	1.06302303450382 	0.00747769950559364 	1.49986678824832
1.00000000001227e-06 	2.80223785741905 	-3.81639164714898e-17 	1.06317106860781 	0.00745237261959641 	1.61799588615391
1.00000000001227e-06 	2.81436826325886 	-4.5102810375397e-17 	1.06330756324719 	0.00744650082963249 	1.74924167164611
1.00000000001227e-06 	2.82607000020648 	-4.85722573273506e-17 	1.06343331364755 	0.00745880736077195 	1.89455547003689
1.00000000001227e-06 	2.83735821672614 	-5.55111512312578e-17 	1.06354908667868 	0.00748763058727379 	2.05488642796688
1.00000000001227e-06 	2.8482475259599 	-6.24500451351651e-17 	1.06365562037701 	0.00753093893395732 	2.23120172130154
1.00000000001227e-06 	2.85875202464506 	-6.24500451351651e-17 	1.06375362282634 	0.00758637309853894 	2.42452832585764
1.00000000001227e-06 	2.86888531136304 	-6.24500451351651e-17 	1.06384377072443 	0.00765131365138515 	2.63602169856823
1.00000000001227e-06 	2.87866050414343 	-6.24500451351651e-17 	1.06392670788861 	0.00772296880873731 	2.86706650226843
1.00000000001227e-06 	2.88809025744591 	-6.24500451351651e-17 	1.06400304384884 	0.00779847460906553 	3.11941467218888
1.00000000001227e-06 	2.89718677854204 	-6.24500451351651e-17 	1.06407335256742 	0.00787499828626762 	3.39536724785586
1.00000000001227e-06 	2.90596184331819 	-6.24500451351651e-17 	1.06413817122999 	0.00794983547178007 	3.69800918165712
1.00000000001227e-06 	2.91442681151997 	-6.59194920871187e-17 	1.06419799898659 	0.00802049280387804 	4.03151163796181
1.00000000001227e-06 	2.92259264145801 	-6.93889390390723e-17 	1.0642532954894 	0.0080847491613383 	4.40152525454002
1.00000000001227e-06 	2.93046990419395 	-7.28583859910259e-17 	1.06430447907439 	0.00814069050016613 	4.81570217377984
1.00000000001227e-06 	2.93806879722526 	-7.63278329429795e-17 	1.06435192446312 	0.00818671450195977 	5.28440721785763
1.00000000001227e-06 	2.94539915768639 	-7.28583859910259e-17 	1.06439595991391 	0.00822150120040096 	5.82171434502271
1.00000000001227e-06 	2.95247047508335 	-6.93889390390723e-17 	1.06443686381861 	0.00824394349214892 	6.44684235872725
1.00000000001227e-06 	2.9592919035784 	-6.93889390390723e-17 	1.06447486085565 	0.00825302550783089 	7.18627996004364
1.00000000001227e-06 	2.96587227384056 	-6.93889390390723e-17 	1.06451011816322 	0.00824762466314945 	8.0770150406075
1.00000000001227e-06 	2.97222010447726 	-7.28583859910259e-17 	1.06454274226462 	0.00822619005786647 	9.17157562923326
1.00000000001227e-06 	2.97834361306218 	-7.97972798949331e-17 	1.06457277443532 	0.00818620675113078 	10.5461298193608
1.00000000001227e-06 	2.98425072677325 	-7.97972798949331e-17 	1.06460017900742 	0.0081232758420771 	12.313937891707
1.00000000001227e-06 	2.98994909265478 	-7.63278329429795e-17 	1.06462487666103 	0.00802949737243332 	14.6485980473364
1.00000000001227e-06 	2.99544608751689 	-7.63278329429795e-17 	1.06464693307449 	0.00788912956517391 	17.828673168253
1.00000000001227e-06 	3.00074882748522 	-7.97972798949331e-17 	1.06466644202539 	0.00766983320920023 	22.3192165469986
1.00000000001227e-06 	3.00586417721304 	-8.67361737988404e-17 	1.0646829771997 	0.0073089803713435 	28.9032485750192
1.00000000001227e-06 	3.01079875876789 	-9.0205620750794e-17 	1.0646958157619 	0.00669349117474676 	38.944209686613
1.00000000001227e-06 	3.01555896020418 	-9.0205620750794e-17 	1.06470472169416 	0.00564578541189084 	55.1845162137698
1.00000000001227e-06 	3.02015094383281 	-9.71445146547012e-17 	1.06471011045545 	0.00398568946585589 	85.3568515702889
1.00000000001227e-06 	3.02458065419862 	-1.00613961606655e-16 	1.06471289703581 	0.00201342440532186 	167.988315163326
1.00000000001227e-06 	3.02885382577583 	-1.04083408558608e-16 	1.06471415700918 	0.000594482609370832 	658.207184384603
