1.00000000000453e-06 	1.00195556483898 	0 	0.921181293340982 	0.000212372628588992 	1568.94915265124
1.00000000000453e-06 	1.00593833258374 	0 	0.921211687939873 	0.00165884965076519 	705.366038436178
1.00000000000453e-06 	1.01006700077429 	0 	0.921307251467961 	0.00520819882809857 	179.976264391503
1.00000000000453e-06 	1.0143469141712 	0 	0.9215233433521 	0.00971975953757955 	89.6835885733394
1.00000000000453e-06 	1.01878361332929 	0 	0.921890296825517 	0.0135749573413258 	55.1927578787319
1.00000000000453e-06 	1.02338284177015 	-3.46944695195361e-18 	0.922397485534142 	0.0166493322794708 	36.9124412568364
1.00000000000453e-06 	1.02815055341735 	-6.93889390390723e-18 	0.923020853798915 	0.0193573270229147 	26.4352105165399
1.00000000000453e-06 	1.03309292030413 	-6.93889390390723e-18 	0.923740254737563 	0.0218397683820169 	20.0878430543411
1.00000000000453e-06 	1.03821634056339 	-6.93889390390723e-18 	0.924541033148919 	0.0241206311415288 	15.9916772025123
1.00000000000453e-06 	1.04352744671036 	-1.04083408558608e-17 	0.925414306678528 	0.0262088918905503 	13.1835949263295
1.00000000000453e-06 	1.04903311422874 	-1.04083408558608e-17 	0.926355563178843 	0.0281177834851861 	11.1580491556976
1.00000000000453e-06 	1.05474047047132 	-6.93889390390723e-18 	0.927362737728236 	0.0298634810366444 	9.6362648443775
1.00000000000453e-06 	1.06065690388671 	-3.46944695195361e-18 	0.928434999420782 	0.0314623638195286 	8.45555385832368
1.00000000000453e-06 	1.06679007358401 	-3.46944695195361e-18 	0.929572133852407 	0.0329295499221075 	7.51573206583864
1.00000000000453e-06 	1.07314791924792 	-6.93889390390723e-18 	0.930774206363917 	0.0342783672051562 	6.7521073691032
1.00000000000453e-06 	1.07973867141705 	-3.46944695195361e-18 	0.932041362843828 	0.0355202900596194 	6.12116508171476
1.00000000000453e-06 	1.08657086213875 	0 	0.933373709997967 	0.0366650701598245 	5.59259612993239
1.00000000000453e-06 	1.09365333601424 	0 	0.934771242732229 	0.0377209295976237 	5.14464995988443
1.00000000000453e-06 	1.10099526164836 	3.46944695195361e-18 	0.936233798909243 	0.0386947586944019 	4.76131256202765
1.00000000000453e-06 	1.10860614351884 	6.93889390390723e-18 	0.937761030204211 	0.0395922961572289 	4.43052963914146
1.00000000000453e-06 	1.11649583428022 	3.46944695195361e-18 	0.939352383928072 	0.0404182849372231 	4.14305137110045
1.00000000000453e-06 	1.12467454751866 	6.93889390390723e-18 	0.941007094672116 	0.0411766039787174 	3.89165938884127
1.00000000000453e-06 	1.13315287097387 	1.73472347597681e-17 	0.94272418540487 	0.0418703787491069 	3.67063578501229
1.00000000000453e-06 	1.1419417802455 	2.08166817117217e-17 	0.944502476759574 	0.0425020740399676 	3.47538959145597
1.00000000000453e-06 	1.15105265300152 	1.38777878078145e-17 	0.946340602766565 	0.0430735723195096 	3.30218831721344
1.00000000000453e-06 	1.1604972837072 	1.04083408558608e-17 	0.948237030982389 	0.0435862405284456 	3.1479612493297
1.00000000000453e-06 	1.17028789889366 	1.38777878078145e-17 	0.950190084671117 	0.044040987851505 	3.01015286173838
1.00000000000453e-06 	1.1804371729856 	1.73472347597681e-17 	0.952197964603359 	0.0444383167102583 	2.88661194481893
1.00000000000453e-06 	1.19095824470904 	2.42861286636753e-17 	0.954258768178848 	0.0447783689997482 	2.77550670835042
1.00000000000453e-06 	1.20186473410003 	2.42861286636753e-17 	0.956370503785269 	0.0450609694010115 	2.67525913453392
1.00000000000453e-06 	1.21317076013637 	2.08166817117217e-17 	0.958531098496852 	0.0452856674083508 	2.58449385991158
1.00000000000453e-06 	1.22489095901542 	2.08166817117217e-17 	0.960738397959435 	0.0454517794821415 	2.50199820445893
1.00000000000453e-06 	1.23704050310128 	2.08166817117217e-17 	0.962990159970531 	0.0455584324815611 	2.42669088663539
1.00000000000453e-06 	1.24963512056619 	2.42861286636753e-17 	0.9652840457619 	0.0456046093335429 	2.35759764013124
1.00000000000453e-06 	1.26269111575139 	2.77555756156289e-17 	0.967617610306476 	0.0455891977042607 	2.2938324697913
1.00000000000453e-06 	1.27622539027388 	2.77555756156289e-17 	0.969988290217992 	0.0455110420471284 	2.23458366174927
1.00000000000453e-06 	1.29025546490643 	2.77555756156289e-17 	0.97239339047956 	0.0453689989851237 	2.17910386145194
1.00000000000453e-06 	1.30479950225895 	2.77555756156289e-17 	0.974830073424997 	0.0451619957762658 	2.12670356648416
1.00000000000453e-06 	1.31987633029101 	3.12250225675825e-17 	0.977295352727998 	0.0448890913793075 	2.0767473747047
1.00000000000453e-06 	1.33550546668544 	3.81639164714898e-17 	0.979786093436508 	0.0445495392874948 	2.02865237543198
1.00000000000453e-06 	1.35170714411495 	3.81639164714898e-17 	0.982299017802861 	0.0441428509847521 	1.98188815347464
1.00000000000453e-06 	1.3685023364343 	3.81639164714898e-17 	0.98483071679847 	0.0436688587366114 	1.93597796156809
1.00000000000453e-06 	1.38591278583198 	4.16333634234434e-17 	0.987377667544052 	0.0431277765067973 	1.89050070014874
1.00000000000453e-06 	1.40396103097652 	4.16333634234434e-17 	0.989936256057721 	0.0425202578528078 	1.8450933992728
1.00000000000453e-06 	1.42267043619387 	3.81639164714898e-17 	0.99250280345296 	0.0418474494880582 	1.79945389875543
1.00000000000453e-06 	1.44206522171365 	3.12250225675825e-17 	0.995073593415524 	0.041111038945679 	1.7533433785648
1.00000000000453e-06 	1.46217049502345 	3.12250225675825e-17 	0.997644899066318 	0.0403132944378745 	1.70658831309587
1.00000000000453e-06 	1.48301228337162 	2.77555756156289e-17 	1.00021300786364 	0.0394570944742315 	1.65908135213126
1.00000000000453e-06 	1.50461756746086 	2.42861286636753e-17 	1.00277424354215 	0.0385459443742597 	1.61078065449707
1.00000000000453e-06 	1.52701431637603 	2.77555756156289e-17 	1.00532498399644 	0.0375839767578131 	1.56170734075744
1.00000000000453e-06 	1.55023152379144 	3.46944695195361e-17 	1.00786167403217 	0.0365759333703116 	1.51194093534469
1.00000000000453e-06 	1.57429924550461 	3.81639164714898e-17 	1.01038083225162 	0.0355271260392785 	1.46161287611054
1.00000000000453e-06 	1.59924863834497 	3.46944695195361e-17 	1.01287905213372 	0.0344433750913642 	1.41089834958933
1.00000000000453e-06 	1.62511200050782 	4.16333634234434e-17 	1.01535299848332 	0.0333309242281189 	1.36000686873227
1.00000000000453e-06 	1.65192281336593 	4.5102810375397e-17 	1.01779940117093 	0.0321963316772188 	1.30917215779918
1.00000000000453e-06 	1.67971578481283 	3.81639164714898e-17 	1.02021504823531 	0.0310463384395968 	1.25864204223766
1.00000000000453e-06 	1.70852689419381 	3.81639164714898e-17 	1.0225967807519 	0.0298877157717977 	1.2086691473195
1.00000000000453e-06 	1.73839343888296 	4.16333634234434e-17 	1.02494149276346 	0.0287270956200879 	1.15950327053825
1.00000000000453e-06 	1.76935408256639 	4.5102810375397e-17 	1.02724614052315 	0.0275707893241401 	1.11138626794382
1.00000000000453e-06 	1.80144890529426 	4.85722573273506e-17 	1.02950776484161 	0.0264246012956955 	1.06455007163301
1.00000000000453e-06 	1.83471945536634 	4.85722573273506e-17 	1.03172352857652 	0.0252936452185833 	1.01921790951548
1.00000000000453e-06 	1.86920880311829 	4.5102810375397e-17 	1.03389078152981 	0.0241821703259438 	0.975607949688789
1.00000000000453e-06 	1.9049615966783 	5.20417042793042e-17 	1.03600719052077 	0.0230934053954698 	0.93393766473841
1.00000000000453e-06 	1.94202411976624 	5.8702771376512e-17 	1.0380706594241 	0.0220294357462525 	0.894426696289806
1.00000000001227e-06 	1.98044435161019 	1.38777878078145e-17 	1.0400789560921 	0.0209912421508771 	0.857300552126749
1.00000000001227e-06 	2.02024009608346 	1.38777878078145e-17 	1.04201440307867 	0.0199871115464314 	0.823057511559853
1.00000000001227e-06 	2.06000503604194 	6.93889390390723e-18 	1.04383085947687 	0.0190395757243181 	0.792592812839177
1.00000000001227e-06 	2.09836474743797 	0 	1.04549212805934 	0.0181653919944179 	0.766431520730688
1.00000000001227e-06 	2.13536888877258 	0 	1.04700112557782 	0.017361384406896 	0.744336762444494
1.00000000001227e-06 	2.17106536369585 	3.46944695195361e-18 	1.04837552065971 	0.0166176096133712 	0.725848239014431
1.00000000001227e-06 	2.20550038302045 	3.46944695195361e-18 	1.04963055383651 	0.015925925119373 	0.710583758100025
1.00000000001227e-06 	2.23871852454379 	-6.93889390390723e-18 	1.05077931614211 	0.015279736233747 	0.698234919035626
1.00000000001227e-06 	2.27076279075614 	-1.38777878078145e-17 	1.05183314492175 	0.0146737360760339 	0.688560638589949
1.00000000001227e-06 	2.30167466450941 	-1.38777878078145e-17 	1.05280188809701 	0.0141036658045321 	0.681379781520251
1.00000000001227e-06 	2.33149416271873 	-1.04083408558608e-17 	1.05369412255412 	0.0135661067572876 	0.676563823483817
1.00000000001227e-06 	2.36025988816627 	-1.04083408558608e-17 	1.05451733951793 	0.0130583076632307 	0.674030245542204
1.00000000001227e-06 	2.38800907947441 	-1.38777878078145e-17 	1.0552780996229 	0.0125780454883444 	0.673737095753254
1.00000000001227e-06 	2.41477765931296 	-1.38777878078145e-17 	1.05598216318571 	0.0121235161870496 	0.675678911713761
1.00000000001227e-06 	2.44060028090273 	-1.38777878078145e-17 	1.05663460045442 	0.0116932507399074 	0.679884022125665
1.00000000001227e-06 	2.46551037287587 	-1.38777878078145e-17 	1.0572398854205 	0.0112860518017944 	0.686413142457301
1.00000000001227e-06 	2.48954018255081 	-1.38777878078145e-17 	1.05780197597598 	0.010900946669705 	0.695359134597768
1.00000000001227e-06 	2.512720817678 	-1.38777878078145e-17 	1.0583243826279 	0.010537152850452 	0.706847791838551
1.00000000001227e-06 	2.53508228671037 	-1.38777878078145e-17 	1.05881022756347 	0.0101940531086757 	0.721039519440475
1.00000000001227e-06 	2.55665353765073 	-1.04083408558608e-17 	1.05926229555189 	0.00987117741660095 	0.738131793094763
1.00000000001227e-06 	2.57746249552637 	-1.04083408558608e-17 	1.05968307793538 	0.00956818966633344 	0.75836228291838
1.00000000001227e-06 	2.59753609853934 	-1.04083408558608e-17 	1.0600748107749 	0.00928487732896839 	0.782012522700374
1.00000000001227e-06 	2.6169003329393 	-6.93889390390723e-18 	1.06043950806037 	0.0090211424555353 	0.809411978605978
1.00000000001227e-06 	2.6355802666639 	-1.38777878078145e-17 	1.0607789907589 	0.00877699252732665 	0.840942325795066
1.00000000001227e-06 	2.6536000817905 	-2.08166817117217e-17 	1.06109491235137 	0.00855252970141014 	0.877041674703149
1.00000000001227e-06 	2.67098310584103 	-2.08166817117217e-17 	1.06138878139387 	0.00834793699544592 	0.918208403407665
1.00000000001227e-06 	2.68775184198057 	-2.77555756156289e-17 	1.06166198153138 	0.00816345996136275 	0.96500415593235
1.00000000001227e-06 	2.7039279981488 	-3.46944695195361e-17 	1.06191578928711 	0.00799938247155668 	1.01805547353621
1.00000000001227e-06 	2.71953251516198 	-3.46944695195361e-17 	1.06215138985099 	0.00785599545883078 	1.07805346227773
1.00000000001227e-06 	2.73458559382185 	-3.46944695195361e-17 	1.06236989099972 	0.00773355789256922 	1.14575090251374
1.00000000001227e-06 	2.74910672106653 	-3.46944695195361e-17 	1.06257233520268 	0.00763225000732522 	1.22195632192586
1.00000000001227e-06 	2.76311469519732 	-3.46944695195361e-17 	1.06275970991274 	0.00755211985579865 	1.30752483453562
1.00000000001227e-06 	2.776627650214 	-3.46944695195361e-17 	1.06293295601625 	0.00749302559285676 	1.40334603640746
1.00000000001227e-06 	2.78966307929018 	-3.46944695195361e-17 	1.06309297442857 	0.00745457736495072 	1.51032995939674
1.00000000001227e-06 	2.80223785741905 	-3.81639164714898e-17 	1.06324063087159 	0.00743608402312657 	1.62939298563992
1.00000000001227e-06 	2.81436826325886 	-4.5102810375397e-17 	1.06337675894924 	0.00743651076057823 	1.76144662739489
1.00000000001227e-06 	2.82607000020648 	-4.85722573273506e-17 	1.06350216172926 	0.00745445385692844 	1.90739303747233
1.00000000001227e-06 	2.83735821672614 	-5.55111512312578e-17 	1.0636176121225 	0.0074881377576346 	2.06813187297306
1.00000000001227e-06 	2.8482475259599 	-6.24500451351651e-17 	1.06372385240091 	0.0075354377069782 	2.24458356149093
1.00000000001227e-06 	2.85875202464506 	-6.24500451351651e-17 	1.06382159319933 	0.00759392833080027 	2.43773408249755
1.00000000001227e-06 	2.86888531136304 	-6.24500451351651e-17 	1.06391151229916 	0.00766095540424264 	2.64870619017499
1.00000000001227e-06 	2.87866050414343 	-6.24500451351651e-17 	1.06399425340657 	0.00773372512371359 	2.87886184366589
1.00000000001227e-06 	2.88809025744591 	-6.24500451351651e-17 	1.06407042503241 	0.0078094030610493 	3.12994090253416
1.00000000001227e-06 	2.89718677854204 	-6.24500451351651e-17 	1.06414059947764 	0.00788521394342371 	3.40424243705182
1.00000000001227e-06 	2.90596184331819 	-6.24500451351651e-17 	1.06420531184498 	0.00795853353298012 	3.70485795435495
1.00000000001227e-06 	2.91442681151997 	-6.59194920871187e-17 	1.06426505894415 	0.00802696496559004 	4.03597127010111
1.00000000001227e-06 	2.92259264145801 	-6.93889390390723e-17 	1.06432029793708 	0.00808839353665906 	4.40324878116934
1.00000000001227e-06 	2.93046990419395 	-7.28583859910259e-17 	1.06437144457768 	0.00814101556099357 	4.81435823838992
1.00000000001227e-06 	2.93806879722526 	-7.63278329429795e-17 	1.06441887093436 	0.00818333798143107 	5.27967664295097
1.00000000001227e-06 	2.94539915768639 	-7.28583859910259e-17 	1.06446290253804 	0.00821414516621536 	5.81328357738073
1.00000000001227e-06 	2.95247047508335 	-6.93889390390723e-17 	1.06450381496575 	0.00823242690708865 	6.43439401921166
1.00000000001227e-06 	2.9592919035784 	-6.93889390390723e-17 	1.06454182998319 	0.00823725557364812 	7.16948068200778
1.00000000001227e-06 	2.96587227384056 	-6.93889390390723e-17 	1.06457711172221 	0.00822758813856656 	8.05550054746874
1.00000000001227e-06 	2.97222010447726 	-7.28583859910259e-17 	1.06460976365014 	0.00820194557073373 	9.14493237961188
1.00000000001227e-06 	2.97834361306218 	-7.97972798949331e-17 	1.06463982408068 	0.00815787886412106 	10.5138709620475
1.00000000001227e-06 	2.98425072677325 	-7.97972798949331e-17 	1.06466725461177 	0.00809105117276831 	12.2754670908702
1.00000000001227e-06 	2.98994909265478 	-7.63278329429795e-17 	1.06469197236568 	0.00799362212986637 	14.6031432323347
1.00000000001227e-06 	2.99544608751689 	-7.63278329429795e-17 	1.06471403927092 	0.00784995791025211 	17.7750637542855
1.00000000001227e-06 	3.00074882748522 	-7.97972798949331e-17 	1.06473355016055 	0.00762787740267333 	22.2556295311286
1.00000000001227e-06 	3.00586417721304 	-8.67361737988404e-17 	1.06475008355804 	0.00726495461125679 	28.8273068323688
1.00000000001227e-06 	3.01079875876789 	-9.0205620750794e-17 	1.06476291819188 	0.00664857830570273 	38.8523120139493
1.00000000001227e-06 	3.01555896020418 	-9.0205620750794e-17 	1.06477181788678 	0.00560227988817411 	55.0692411082582
1.00000000001227e-06 	3.02015094383281 	-9.71445146547012e-17 	1.06477720067316 	0.00394921299925494 	85.2085004759594
1.00000000001227e-06 	3.02458065419862 	-1.00613961606655e-16 	1.06477998422393 	0.00199142613820083 	167.823111637682
1.00000000001227e-06 	3.02885382577583 	-1.04083408558608e-16 	1.0647812440203 	0.000586944753887134 	658.090755455962
