3 	0.00391112967796271 	-1.90819582357449e-17 	-0.0537475893213648 	0.000122964011591887 	-4.8088889710392e-20
3 	0.0118766651674914 	-2.42861286636753e-17 	-0.142942089445881 	0.000206971223685497 	3.99079584512284e-20
3 	0.0201340015485759 	-2.77555756156289e-17 	-0.195089118166963 	0.000310692672479231 	-1.75351461650496e-20
3 	0.0286938283423949 	-3.12250225675825e-17 	-0.215104802486956 	0.000328567245309011 	1.88466329804695e-20
3 	0.0375672266585909 	-3.12250225675825e-17 	-0.221048625319699 	0.000277888592704983 	3.08059188480755e-21
3 	0.0467656835403032 	-2.42861286636753e-17 	-0.222020733635188 	0.000190296807807524 	-1.42913742690891e-20
3 	0.0563011068347007 	-1.56125112837913e-17 	-0.220980067672274 	7.76572505730928e-05 	-3.85328408759067e-21
3 	0.0661858406082649 	-1.73472347597681e-17 	-0.218918908632789 	-5.48197365520709e-05 	2.65437677599925e-17
3 	0.0764326811267816 	-1.90819582357449e-17 	-0.21623356887373 	-0.000204335905844599 	2.07105176014041e-16
3 	0.0870548934207257 	-1.73472347597681e-17 	-0.21310626707289 	-0.0003694548251417 	-1.65119212481191e-16
3 	0.0980662284574838 	-1.56125112837913e-17 	-0.209628201380923 	-0.00054951780987459 	-2.46919266496208e-17
3 	0.109480940942647 	-8.67361737988404e-18 	-0.205846362684342 	-0.000744336216898006 	-3.89274638798859e-21
3 	0.121313807773417 	-3.46944695195361e-18 	-0.201783851719595 	-0.000954046084029455 	8.96054931242466e-17
3 	0.133580147168011 	-5.20417042793042e-18 	-0.197449617591936 	-0.00117903760874621 	9.90950246261687e-17
3 	0.146295838495839 	-6.93889390390723e-18 	-0.192843480826944 	-0.00141992075812024 	-7.86306840488183e-17
3 	0.159477342834115 	0 	-0.187958860002131 	-0.00167751162983074 	-8.82633006230872e-17
3 	0.173141724277517 	1.38777878078145e-17 	-0.182784294213241 	-0.00195283234202741 	-4.92103293347312e-21
3 	0.18730667202848 	3.12250225675825e-17 	-0.177304291370946 	-0.00224712064876703 	-8.58622220483884e-21
3 	0.201990523296728 	4.16333634234434e-17 	-0.171499774783348 	-0.00256184727526307 	-8.44320966395498e-22
3 	0.217212287037676 	3.81639164714898e-17 	-0.165348274327026 	-0.0028987399818825 	7.85802687609257e-22
3 	0.232991668560441 	3.81639164714898e-17 	-0.158823942941333 	-0.00325981393636281 	6.18866322910298e-21
3 	0.249349095037321 	4.5102810375397e-17 	-0.151897443143792 	-0.00364740826609456 	1.66869526335329e-21
3 	0.266305741947753 	4.85722573273506e-17 	-0.144535727231713 	-0.00406422879361425 	3.40566798359756e-21
3 	0.283883560490999 	4.16333634234434e-17 	-0.136701721641018 	-0.00451339696955018 	4.39313081390719e-21
3 	0.30210530600303 	3.46944695195361e-17 	-0.128353916842875 	-0.00499850489129802 	-1.11779923873885e-21
3 	0.320994567414414 	2.77555756156289e-17 	-0.119445857126938 	-0.0055236760044933 	2.54064367486639e-21
3 	0.340575797787321 	1.04083408558608e-17 	-0.109925518468228 	-0.0060936305690884 	-2.0637802883975e-21
3 	0.360874345971201 	0 	-0.0997345566801785 	-0.00671375414390653 	8.87691861425154e-17
3 	0.381916489418091 	3.46944695195361e-18 	-0.0888074018233777 	-0.00739016617660236 	1.48729020854709e-16
3 	0.403729468200046 	1.04083408558608e-17 	-0.0770701683069504 	-0.00812978427858108 	-1.42533876672457e-16
3 	0.426341520272733 	2.08166817117217e-17 	-0.0644393436727652 	-0.00894037602542809 	-1.00844590824257e-16
3 	0.441285719950775 	2.60208521396521e-17 	-0.0558544156385424 	-0.00949856105495603 	6.57092406325365e-22
3 	0.453216730115852 	2.94902990916057e-17 	-0.0487906544446653 	-0.00996433283733444 	2.76066290124238e-21
3 	0.474081006202548 	3.12250225675825e-17 	-0.0361267003260801 	-0.0108080565235645 	2.15245306150263e-16
3 	0.499270241132364 	4.16333634234434e-17 	-0.0202155471947867 	-0.0118848768476931 	2.60664718903337e-16
3 	0.525382231502763 	6.24500451351651e-17 	-0.00295031649021598 	-0.0130721722449331 	-3.07770886585197e-16
3 	0.552450780547767 	5.89805981832114e-17 	0.0158295988979324 	-0.0143799030861896 	-2.00215940011049e-16
3 	0.58051092981285 	4.5102810375397e-17 	0.0363644558279319 	-0.0158184937367352 	4.08112527743957e-20
3 	0.609599004517911 	3.81639164714898e-17 	0.0591675094396848 	-0.0174145619258326 	1.73850217848202e-20
3 	0.639752660582033 	3.81639164714898e-17 	0.0851368114975537 	-0.0192091498073158 	2.11338021572423e-20
3 	0.671010933370887 	4.16333634234434e-17 	0.115200044072873 	-0.0212358103142003 	1.927084875621e-20
3 	0.703414288229901 	4.16333634234434e-17 	0.149840724927695 	-0.0234734429371932 	-1.32841870983374e-20
3 	0.737004672868606 	4.5102810375397e-17 	0.189073039932457 	-0.0258552910276497 	2.61370377318915e-20
3 	0.771825571663976 	5.89805981832114e-17 	0.232591687302903 	-0.0282888703840056 	-6.8075383748308e-20
3 	0.807922061953054 	6.24500451351651e-17 	0.279888367953552 	-0.0306760150096361 	-2.51479609907448e-20
3 	0.845340872387743 	5.55111512312578e-17 	0.330314202483948 	-0.0329312476954122 	-8.31221256218197e-17
3 	0.88413044342731 	5.55111512312578e-17 	0.38312457630905 	-0.034990493755021 	-7.41054446505961e-17
3 	0.924340990046898 	5.55111512312578e-17 	0.437526518644633 	-0.0368073106490401 	6.93937269206977e-17
3 	0.966024566743242 	5.89805981832114e-17 	0.492706248346114 	-0.0383409176719624 	5.96056902735657e-17
3 	1.00923513492173 	6.24500451351651e-17 	0.547807863314717 	-0.0395455889143268 	1.97259148891141e-20
3 	1.05402863275206 	6.24500451351651e-17 	0.601872156064445 	-0.0403701265416097 	6.4051620747298e-21
3 	1.10046304758287 	6.59194920871187e-17 	0.653797572211281 	-0.0407695696091537 	-2.79125733744105e-23
3 	1.14859849100923 	6.93889390390723e-17 	0.702426715753171 	-0.0407265013723124 	-7.79324837711879e-20
3 	1.19849727668995 	6.59194920871187e-17 	0.746870659210043 	-0.0402800746900154 	1.19710243200329e-21
3 	1.25022400101563 	6.04984812246911e-17 	0.787093371655134 	-0.0394420644644515 	1.57941730214123e-19
3 	1.30384562673186 	5.70290342727375e-17 	0.823352080576767 	-0.0383153129226271 	6.1227444771751e-21
3 	1.35943156962566 	5.46437894932694e-17 	0.855831866408165 	-0.0370343662507652 	7.90604374820053e-21
3 	1.41705378838763 	5.63785129692462e-17 	0.884845653030934 	-0.0357486291348063 	1.15545282044945e-19
3 	1.47678687776592 	6.24500451351651e-17 	0.911036929223771 	-0.0345058807285219 	5.20590820225745e-21
3 	1.53870816513278 	6.24500451351651e-17 	0.935086845928129 	-0.0333054695301311 	-6.87084379868367e-20
3 	1.60289781058851 	6.07153216591882e-17 	0.957529675170876 	-0.0321196425222926 	1.34641442722661e-20
3 	1.66943891073267 	5.89805981832114e-17 	0.978713658743495 	-0.0309107076210612 	1.54789574462317e-20
3 	1.73841760623657 	5.20417042793042e-17 	0.998845653752714 	-0.029641977923709 	8.91339332486275e-21
3 	1.8099231933566 	4.85722573273506e-17 	1.01802491973693 	-0.0282846470988642 	-1.87401006224986e-20
3 	1.88404823953249 	4.68375338513738e-17 	1.03625122099663 	-0.0268207807335414 	-1.07024848411073e-20
3 	1.96088870322038 	1.73472347597681e-17 	1.05255651214346 	-0.0253372349165796 	-2.31331849978574e-20
3 	2 	2.08166817117217e-17 	1.05989365902206 	-0.0246255098884378 	0
3 	2.02024009608346 	2.42861286636753e-17 	1.06471754169977 	-0.0241124203204819 	0
3 	2.06000503604194 	2.77555756156289e-17 	1.07316206794108 	-0.0231784248093072 	0
3 	2.09836474743796 	2.77555756156289e-17 	1.08007087516124 	-0.0223519736984715 	0
3 	2.13536888877257 	2.77555756156289e-17 	1.08634119240015 	-0.0215531157557561 	0
3 	2.17106536369585 	2.77555756156289e-17 	1.09202370648341 	-0.0207793635327792 	0
3 	2.20550038302044 	2.77555756156289e-17 	1.09716464188992 	-0.0200315830067956 	0
3 	2.23871852454378 	2.42861286636753e-17 	1.10180587726513 	-0.0193099734387972 	0
3 	2.27076279075613 	2.08166817117217e-17 	1.10598511396168 	-0.0186143502135528 	0
3 	2.30167466450941 	2.08166817117217e-17 	1.1097360808407 	-0.01794429632112 	0
3 	2.33149416271872 	1.73472347597681e-17 	1.11308875980894 	-0.017299219256283 	0
3 	2.36025988816627 	1.38777878078145e-17 	1.11606961827534 	-0.0166783964470264 	0
3 	2.38800907947441 	1.38777878078145e-17 	1.11870183719748 	-0.016081015514824 	0
3 	2.41477765931296 	1.38777878078145e-17 	1.12100552647792 	-0.0155062064390673 	0
3 	2.44060028090273 	1.38777878078145e-17 	1.12299792248858 	-0.0149530667088867 	0
3 	2.46551037287587 	1.38777878078145e-17 	1.12469356493309 	-0.0144206807720436 	0
3 	2.48954018255081 	1.38777878078145e-17 	1.12610445207719 	-0.0139081348204767 	-9.41158482306533e-16
3 	2.51272081767801 	1.38777878078145e-17 	1.12724017470795 	-0.0134145277967632 	-9.16853490722041e-16
3 	2.53508228671038 	1.38777878078145e-17 	1.12810803016373 	-0.0129389793724478 	9.89024605338111e-16
3 	2.55665353765073 	1.38777878078145e-17 	1.12871311853398 	-0.0124806355211093 	9.64719613753668e-16
3 	2.57746249552636 	1.38777878078145e-17 	1.12905842375099 	-0.0120386721932421 	0
3 	2.59753609853934 	1.38777878078145e-17 	1.12914488283886 	-0.0116122974974211 	0
3 	2.6169003329393 	1.38777878078145e-17 	1.12897144706585 	-0.0112007527014146 	0
3 	2.6355802666639 	1.38777878078145e-17 	1.12853513914399 	-0.0108033122865697 	0
3 	2.6536000817905 	1.38777878078145e-17 	1.12783111087171 	-0.0104192832179395 	0
3 	2.67098310584103 	1.73472347597681e-17 	1.12685270561938 	-0.0100480035308719 	0
3 	2.68775184198056 	2.08166817117217e-17 	1.12559152967039 	-0.00968884028258655 	0
3 	2.70392799814879 	2.08166817117217e-17 	1.12403753548172 	-0.00934118687606833 	0
3 	2.71953251516198 	2.08166817117217e-17 	1.12217911824199 	-0.00900445973594856 	0
3 	2.73458559382185 	2.08166817117217e-17 	1.12000322454295 	-0.00867809430534976 	0
3 	2.74910672106653 	2.08166817117217e-17 	1.11749546849543 	-0.00836154034287322 	0
3 	2.76311469519732 	2.08166817117217e-17 	1.11464024632199 	-0.00805425653347874 	0
3 	2.776627650214 	2.08166817117217e-17 	1.11142083567064 	-0.00775570448777898 	0
3 	2.78966307929018 	2.08166817117217e-17 	1.10781946117415 	-0.007465342289991 	0
3 	2.80223785741904 	1.73472347597681e-17 	1.10381730388309 	-0.00718261785994846 	0
3 	2.81436826325886 	1.38777878078145e-17 	1.09939442995992 	-0.00690696250899444 	0
3 	2.82607000020648 	1.38777878078145e-17 	1.09452961415871 	-0.00663778517918314 	0
3 	2.83735821672614 	1.38777878078145e-17 	1.08920003652121 	-0.00637446794421911 	0
3 	2.84824752595991 	1.38777878078145e-17 	1.08338083627441 	-0.0061163634044692 	0
3 	2.85875202464507 	1.38777878078145e-17 	1.07704451440284 	-0.00586279461716644 	0
3 	2.86888531136304 	1.38777878078145e-17 	1.07016018455421 	-0.00561305816309019 	0
3 	2.87866050414343 	1.38777878078145e-17 	1.0626926792423 	-0.00536643086488853 	0
3 	2.88809025744591 	1.38777878078145e-17 	1.05460152305697 	-0.00512218054864367 	0
3 	2.89718677854204 	1.38777878078145e-17 	1.04583978516671 	-0.00487958112190514 	0
3 	2.90596184331819 	1.38777878078145e-17 	1.03635281836134 	-0.00463793215548565 	0
3 	2.91442681151997 	1.38777878078145e-17 	1.02607688009494 	-0.00439658253102715 	0
3 	2.92259264145801 	1.38777878078145e-17 	1.01493761172521 	-0.00415495646446218 	0
3 	2.93046990419395 	1.38777878078145e-17 	1.00284831983009 	-0.0039125997962148 	0
3 	2.93806879722526 	1.73472347597681e-17 	0.989706842086758 	-0.00366924248952404 	0
3 	2.94539915768638 	2.08166817117217e-17 	0.975369826034489 	-0.00342433991934024 	0
3 	2.95247047508335 	2.08166817117217e-17 	0.959614735033542 	-0.00317641550174006 	0
3 	2.9592919035784 	2.08166817117217e-17 	0.942163682102585 	-0.00292372770904266 	0
3 	2.96587227384055 	2.08166817117217e-17 	0.922742628949753 	-0.00266569335613891 	0
3 	2.97222010447726 	2.08166817117217e-17 	0.901082445478432 	-0.002403329196652 	0
3 	2.97834361306218 	2.08166817117217e-17 	0.876879005070522 	-0.00213877061174334 	0
3 	2.98425072677325 	2.08166817117217e-17 	0.849748608352299 	-0.00187475743126061 	0
3 	2.98994909265477 	2.08166817117217e-17 	0.819168300982476 	-0.0016143596971798 	0
3 	2.99544608751689 	2.08166817117217e-17 	0.78438600857694 	-0.00136082265240141 	0
3 	3.00074882748522 	2.08166817117217e-17 	0.744277406010824 	-0.0011174651500607 	0
3 	3.00586417721304 	2.08166817117217e-17 	0.697110681556113 	-0.000887638454565421 	0
3 	3.01079875876789 	2.42861286636753e-17 	0.640147864289779 	-0.000674862098697705 	1.33304633302174e-14
3 	3.01555896020418 	2.77555756156289e-17 	0.568978283924174 	-0.000482569850149535 	9.47187381483543e-15
3 	3.02015094383282 	2.77555756156289e-17 	0.476884466552324 	-0.000313392863449064 	-2.10471368393858e-14
3 	3.02458065419862 	2.77555756156289e-17 	0.358492977566512 	-0.000172041030920774 	-1.71885473240014e-14
3 	3.02885382577583 	2.77555756156289e-17 	0.219071512864314 	-6.93966126287923e-05 	0
