# Residuals            
# Time                 	Ux                     	Uy                     	p                      	k                      	omega                  
10001                  	4.458547235232563e-06	5.327836919546962e-05	4.998874674398358e-02	4.708571112551981e-07	4.083790893696774e-07
