1.00000000000453e-06 	1.00195556483898 	0 	0.105427489757609 	-0.00034782704406924 	-1.44765014589299e-22
1.00000000000453e-06 	1.00593833258374 	0 	0.321726261152367 	-0.00033781666983171 	-2.28132395657567e-22
1.00000000000453e-06 	1.01006700077429 	0 	0.516662399292548 	0.00112502226811772 	-1.08676841267229e-22
1.00000000000453e-06 	1.0143469141712 	0 	0.652372016632865 	0.00361629018585803 	3.28435672200185e-23
1.00000000000453e-06 	1.01878361332929 	0 	0.734990880308688 	0.00648083098671814 	2.96469578596332e-23
1.00000000000453e-06 	1.02338284177015 	-3.46944695195361e-18 	0.785169598593709 	0.00939183221645117 	-5.69360557182068e-23
1.00000000000453e-06 	1.02815055341735 	-6.93889390390723e-18 	0.816897090276428 	0.0121689959785706 	3.71917228825026e-25
1.00000000000453e-06 	1.03309292030413 	-6.93889390390723e-18 	0.838052929816309 	0.0147730773739608 	5.76728061925243e-23
1.00000000000453e-06 	1.03821634056339 	-6.93889390390723e-18 	0.852960239190034 	0.0172191737353568 	6.48434974268654e-24
1.00000000000453e-06 	1.04352744671036 	-1.04083408558608e-17 	0.864017562969571 	0.0195308899744973 	-6.36776995897197e-23
1.00000000000453e-06 	1.04903311422874 	-1.04083408558608e-17 	0.87260117179459 	0.0217311528443905 	-6.02952236103004e-23
1.00000000000453e-06 	1.05474047047132 	-6.93889390390723e-18 	0.879533926378751 	0.0238399325447476 	-1.89699014056833e-23
1.00000000000453e-06 	1.06065690388671 	-3.46944695195361e-18 	0.885327945558785 	0.0258736939366153 	2.39520694945451e-23
1.00000000000453e-06 	1.06679007358401 	-3.46944695195361e-18 	0.890313600035953 	0.0278456291047753 	4.79061363249145e-23
1.00000000000453e-06 	1.07314791924792 	-6.93889390390723e-18 	0.894710722445183 	0.0297661254822194 	3.45193774118798e-23
1.00000000000453e-06 	1.07973867141705 	-3.46944695195361e-18 	0.898669503570258 	0.0316432263368364 	5.19506195992938e-16
1.00000000000453e-06 	1.08657086213875 	0 	0.902294876586275 	0.0334830192157518 	5.5817586347736e-16
1.00000000000453e-06 	1.09365333601424 	0 	0.905661561914452 	0.0352899480566877 	-4.42143835838827e-16
1.00000000000453e-06 	1.10099526164836 	3.46944695195361e-18 	0.908823639369987 	0.0370670599076412 	-4.80813511314773e-16
1.00000000000453e-06 	1.10860614351884 	6.93889390390723e-18 	0.911820808342646 	0.0388161998426369 	-1.28731872795064e-23
1.00000000000453e-06 	1.11649583428022 	3.46944695195361e-18 	0.914682584882481 	0.0405381663129354 	-4.39324129121816e-23
1.00000000000453e-06 	1.12467454751866 	6.93889390390723e-18 	0.917431179565602 	0.0422328370427084 	-2.96881512077707e-23
1.00000000000453e-06 	1.13315287097387 	1.73472347597681e-17 	0.92008351093959 	0.0438992731809522 	1.28421458868596e-23
1.00000000000453e-06 	1.1419417802455 	2.08166817117217e-17 	0.922652641974299 	0.0455358070519677 	2.2297800188753e-24
1.00000000000453e-06 	1.15105265300152 	1.38777878078145e-17 	0.925148827910505 	0.047140119458394 	-3.45352287091059e-23
1.00000000000453e-06 	1.1604972837072 	1.04083408558608e-17 	0.927580298442797 	0.0487093134651791 	-3.52927845854051e-23
1.00000000000453e-06 	1.17028789889366 	1.38777878078145e-17 	0.92995385198273 	0.0502399888816811 	-1.20151677561849e-23
1.00000000000453e-06 	1.1804371729856 	1.73472347597681e-17 	0.932275311271045 	0.0517283187011183 	0
1.00000000000453e-06 	1.19095824470904 	2.42861286636753e-17 	0.93454987262 	0.0531701273999152 	-2.00604772115216e-23
1.00000000000453e-06 	1.20186473410003 	2.42861286636753e-17 	0.936782371131473 	0.0545609701657166 	-4.01209332032552e-23
1.00000000000453e-06 	1.21317076013637 	2.08166817117217e-17 	0.93897747841286 	0.0558962117909872 	-2.00604559736836e-23
1.00000000000453e-06 	1.22489095901542 	2.08166817117217e-17 	0.941139845732447 	0.0571711038770382 	0
1.00000000000453e-06 	1.23704050310128 	2.08166817117217e-17 	0.943274203203325 	0.0583808589142756 	-1.17388985871716e-24
1.00000000000453e-06 	1.24963512056619 	2.42861286636753e-17 	0.945385423979425 	0.0595207196276059 	-2.35194905070683e-24
1.00000000000453e-06 	1.26269111575139 	2.77555756156289e-17 	0.947478561422216 	0.0605860216574104 	-1.17390861620643e-24
1.00000000000453e-06 	1.27622539027388 	2.77555756156289e-17 	0.949558866731836 	0.0615722474495468 	0
1.00000000000453e-06 	1.29025546490643 	2.77555756156289e-17 	0.951631793752674 	0.0624750701470442 	0
1.00000000000453e-06 	1.30479950225895 	2.77555756156289e-17 	0.95370299494891 	0.0632903886500767 	-3.86176966740885e-23
1.00000000000453e-06 	1.31987633029101 	3.12250225675825e-17 	0.955778310489826 	0.0640143565255616 	-3.69411764115269e-23
1.00000000000453e-06 	1.33550546668544 	3.81639164714898e-17 	0.957863754974663 	0.0646434075886781 	8.24701679723569e-23
1.00000000000453e-06 	1.35170714411495 	3.81639164714898e-17 	0.959965507980092 	0.0651742821320341 	1.60853846895141e-22
1.00000000000453e-06 	1.3685023364343 	3.81639164714898e-17 	0.962089909816725 	0.0656040571276357 	1.6072235844506e-22
1.00000000000453e-06 	1.38591278583198 	4.16333634234434e-17 	0.964243458214783 	0.0659301798442676 	1.2176296590072e-22
1.00000000000453e-06 	1.40396103097652 	4.16333634234434e-17 	0.966432799436198 	0.0661505024566579 	4.10923426315427e-23
1.00000000000453e-06 	1.42267043619387 	3.81639164714898e-17 	0.968664707234174 	0.0662633149079263 	-1.68530870930926e-22
1.00000000000453e-06 	1.44206522171365 	3.12250225675825e-17 	0.970946045320489 	0.0662673718665023 	-3.371012186744e-22
1.00000000000453e-06 	1.46217049502345 	3.12250225675825e-17 	0.973283713123322 	0.0661619106415658 	-1.68552869637346e-22
1.00000000000453e-06 	1.48301228337162 	2.77555756156289e-17 	0.975684577487388 	0.0659466602398172 	1.77027158436206e-22
1.00000000000453e-06 	1.50461756746086 	2.42861286636753e-17 	0.978155393099904 	0.0656218427790334 	4.44653591717624e-22
1.00000000000453e-06 	1.52701431637603 	2.77555756156289e-17 	0.980702712865803 	0.06518816756035 	2.65973786879457e-22
1.00000000000453e-06 	1.55023152379144 	3.46944695195361e-17 	0.983332788012248 	0.0646468175130457 	-9.43974559009638e-23
1.00000000000453e-06 	1.57429924550461 	3.81639164714898e-17 	0.986051457484187 	0.0639994277647155 	-1.88767207391012e-22
1.00000000000453e-06 	1.59924863834497 	3.46944695195361e-17 	0.988864026656525 	0.0632480563391681 	-1.91586552723885e-22
1.00000000000453e-06 	1.62511200050782 	4.16333634234434e-17 	0.99177513563422 	0.0623951471605595 	-1.95522212867166e-22
1.00000000000453e-06 	1.65192281336593 	4.5102810375397e-17 	0.994788617403722 	0.0614434856800759 	2.08649938220409e-22
1.00000000000453e-06 	1.67971578481283 	3.81639164714898e-17 	0.997907346169712 	0.0603961475210816 	7.17443534853635e-22
1.00000000000453e-06 	1.70852689419381 	3.81639164714898e-17 	1.0011330762982 	0.0592564406066103 	4.0877208402638e-22
1.00000000000453e-06 	1.73839343888296 	4.16333634234434e-17 	1.00446627218878 	0.058027841277884 	0
1.00000000000453e-06 	1.76935408256639 	4.5102810375397e-17 	1.00790592912125 	0.0567139248923099 	0
1.00000000000453e-06 	1.80144890529426 	4.85722573273506e-17 	1.01144938485504 	0.0553182911150803 	0
1.00000000000453e-06 	1.83471945536634 	4.85722573273506e-17 	1.01509212167645 	0.0538444834202423 	0
1.00000000000453e-06 	1.86920880311829 	4.5102810375397e-17 	1.01882755430576 	0.052295902996504 	1.3545506859596e-24
1.00000000000453e-06 	1.9049615966783 	5.20417042793042e-17 	1.02264678509337 	0.0506757251642661 	2.65897584718685e-24
1.00000000000453e-06 	1.94202411976624 	5.8702771376512e-17 	1.02653831318374 	0.0489867975410858 	1.35549174952527e-24
1.00000000001227e-06 	1.98044435161019 	1.38777878078145e-17 	1.03048757318371 	0.0472315950737515 	0
1.00000000001227e-06 	2.02024009608346 	1.38777878078145e-17 	1.03444174660443 	0.0454286915146198 	0
1.00000000001227e-06 	2.06000503604194 	6.93889390390723e-18 	1.03827849666423 	0.0436300014182694 	0
1.00000000001227e-06 	2.09836474743797 	0 	1.04188906384927 	0.0418851041374079 	0
1.00000000001227e-06 	2.13536888877258 	0 	1.04524576897509 	0.0402081565834246 	0
1.00000000001227e-06 	2.17106536369585 	3.46944695195361e-18 	1.04835590238542 	0.0385969449918605 	0
1.00000000001227e-06 	2.20550038302045 	3.46944695195361e-18 	1.05122740383384 	0.0370488233722208 	0
1.00000000001227e-06 	2.23871852454379 	-6.93889390390723e-18 	1.05386853898018 	0.0355610089209827 	0
1.00000000001227e-06 	2.27076279075614 	-1.38777878078145e-17 	1.05628765147797 	0.0341306706921215 	0
1.00000000001227e-06 	2.30167466450941 	-1.38777878078145e-17 	1.05849297264746 	0.0327550219994357 	0
1.00000000001227e-06 	2.33149416271873 	-1.04083408558608e-17 	1.06049247047513 	0.0314313760500834 	0
1.00000000001227e-06 	2.36025988816627 	-1.04083408558608e-17 	1.06229373278493 	0.0301571747077865 	0
1.00000000001227e-06 	2.38800907947441 	-1.38777878078145e-17 	1.0639038804517 	0.0289300011967667 	0
1.00000000001227e-06 	2.41477765931296 	-1.38777878078145e-17 	1.06532950533883 	0.0277475827895414 	0
1.00000000001227e-06 	2.44060028090273 	-1.38777878078145e-17 	1.06657662784577 	0.0266077872720218 	0
1.00000000001227e-06 	2.46551037287587 	-1.38777878078145e-17 	1.06765066957952 	0.0255086157953471 	0
1.00000000001227e-06 	2.48954018255081 	-1.38777878078145e-17 	1.06855643734052 	0.024448193855346 	0
1.00000000001227e-06 	2.512720817678 	-1.38777878078145e-17 	1.06929811525662 	0.0234247615278774 	0
1.00000000001227e-06 	2.53508228671037 	-1.38777878078145e-17 	1.06987926247167 	0.0224366636752005 	0
1.00000000001227e-06 	2.55665353765073 	-1.04083408558608e-17 	1.07030281427806 	0.0214823405613484 	0
1.00000000001227e-06 	2.57746249552637 	-1.04083408558608e-17 	1.07057108497488 	0.0205603191292553 	0
1.00000000001227e-06 	2.59753609853934 	-1.04083408558608e-17 	1.07068577103935 	0.0196692050702184 	0
1.00000000001227e-06 	2.6169003329393 	-6.93889390390723e-18 	1.07064795342647 	0.0188076757373405 	0
1.00000000001227e-06 	2.6355802666639 	-1.38777878078145e-17 	1.07045809796879 	0.0179744739051572 	0
1.00000000001227e-06 	2.6536000817905 	-2.08166817117217e-17 	1.0701160529411 	0.0171684023482154 	0
1.00000000001227e-06 	2.67098310584103 	-2.08166817117217e-17 	1.06962104288733 	0.0163883191953963 	0
1.00000000001227e-06 	2.68775184198057 	-2.77555756156289e-17 	1.06897165778193 	0.0156331340097356 	0
1.00000000001227e-06 	2.7039279981488 	-3.46944695195361e-17 	1.06816583651442 	0.0149018045422741 	0
1.00000000001227e-06 	2.71953251516198 	-3.46944695195361e-17 	1.06720084353899 	0.0141933341109428 	0
1.00000000001227e-06 	2.73458559382185 	-3.46944695195361e-17 	1.06607323731546 	0.0135067695601981 	0
1.00000000001227e-06 	2.74910672106653 	-3.46944695195361e-17 	1.06477882887064 	0.0128411997631122 	0
1.00000000001227e-06 	2.76311469519732 	-3.46944695195361e-17 	1.06331262841493 	0.0121957546342982 	0
1.00000000001227e-06 	2.776627650214 	-3.46944695195361e-17 	1.06166877743518 	0.011569604629043 	0
1.00000000001227e-06 	2.78966307929018 	-3.46944695195361e-17 	1.05984046302024 	0.0109619607112016 	0
1.00000000001227e-06 	2.80223785741905 	-3.81639164714898e-17 	1.05781981031937 	0.0103720747797825 	0
1.00000000001227e-06 	2.81436826325886 	-4.5102810375397e-17 	1.05559774792769 	0.0097992405518881 	0
1.00000000001227e-06 	2.82607000020648 	-4.85722573273506e-17 	1.05316383956082 	0.0092427949080765 	0
1.00000000001227e-06 	2.83735821672614 	-5.55111512312578e-17 	1.05050607351487 	0.00870211971570622 	0
1.00000000001227e-06 	2.8482475259599 	-6.24500451351651e-17 	1.04761059895993 	0.00817664415701559 	0
1.00000000001227e-06 	2.85875202464506 	-6.24500451351651e-17 	1.04446139487825 	0.00766584760229565 	0
1.00000000001227e-06 	2.86888531136304 	-6.24500451351651e-17 	1.04103985313747 	0.00716926308542997 	0
1.00000000001227e-06 	2.87866050414343 	-6.24500451351651e-17 	1.03732425136859 	0.00668648146030222 	0
1.00000000001227e-06 	2.88809025744591 	-6.24500451351651e-17 	1.03328908339455 	0.00621715634318904 	0
1.00000000001227e-06 	2.89718677854204 	-6.24500451351651e-17 	1.0289042040544 	0.00576100997927965 	0
1.00000000001227e-06 	2.90596184331819 	-6.24500451351651e-17 	1.02413373010522 	0.00531784021158 	0
1.00000000001227e-06 	2.91442681151997 	-6.59194920871187e-17 	1.01893461754806 	0.004887528777551 	0
1.00000000001227e-06 	2.92259264145801 	-6.93889390390723e-17 	1.01325480533934 	0.00447005121102031 	0
1.00000000001227e-06 	2.93046990419395 	-7.28583859910259e-17 	1.00703077161733 	0.00406548867891127 	0
1.00000000001227e-06 	2.93806879722526 	-7.63278329429795e-17 	1.00018428446 	0.00367404212251424 	0
1.00000000001227e-06 	2.94539915768639 	-7.28583859910259e-17 	0.992618033949007 	0.00329604907842982 	0
1.00000000001227e-06 	2.95247047508335 	-6.93889390390723e-17 	0.984209688309072 	0.00293200348248811 	0
1.00000000001227e-06 	2.9592919035784 	-6.93889390390723e-17 	0.974803694565669 	0.00258257853329767 	0
1.00000000001227e-06 	2.96587227384056 	-6.93889390390723e-17 	0.964199792117692 	0.0022486521709575 	0
1.00000000001227e-06 	2.97222010447726 	-7.28583859910259e-17 	0.95213663238801 	0.0019313337184128 	0
1.00000000001227e-06 	2.97834361306218 	-7.97972798949331e-17 	0.938267920264001 	0.00163198866103708 	0
1.00000000001227e-06 	2.98425072677325 	-7.97972798949331e-17 	0.922126750212175 	0.00135225606858151 	0
1.00000000001227e-06 	2.98994909265478 	-7.63278329429795e-17 	0.903070519415428 	0.0010940453619219 	0
1.00000000001227e-06 	2.99544608751689 	-7.63278329429795e-17 	0.88019217124004 	0.000859481845987941 	0
1.00000000001227e-06 	3.00074882748522 	-7.97972798949331e-17 	0.852169204326569 	0.000650840731196174 	0
1.00000000001227e-06 	3.00586417721304 	-8.67361737988404e-17 	0.816988971358083 	0.000470924127975943 	0
1.00000000001227e-06 	3.01079875876789 	-9.0205620750794e-17 	0.771409943932597 	0.000323452052568553 	0
1.00000000001227e-06 	3.01555896020418 	-9.0205620750794e-17 	0.709840220067693 	0.00020338473286714 	0
1.00000000001227e-06 	3.02015094383281 	-9.71445146547012e-17 	0.622243960736853 	9.54313066067615e-05 	0
1.00000000001227e-06 	3.02458065419862 	-1.00613961606655e-16 	0.494255858080637 	1.9476494431557e-05 	0
1.00000000001227e-06 	3.02885382577583 	-1.04083408558608e-16 	0.319341868124904 	4.92109682251506e-06 	0
