/*--------------------------------*- C++ -*----------------------------------*\
  =========                 |
  \\      /  F ield         | OpenFOAM: The Open Source CFD Toolbox
   \\    /   O peration     | Website:  https://openfoam.org
    \\  /    A nd           | Version:  7
     \\/     M anipulation  |
\*---------------------------------------------------------------------------*/
FoamFile
{
    version     2.0;
    format      ascii;
    class       volScalarField;
    location    "8000";
    object      epsilon;
}
// * * * * * * * * * * * * * * * * * * * * * * * * * * * * * * * * * * * * * //

dimensions      [0 2 -3 0 0 0 0];

internalField   nonuniform List<scalar> 
15600
(
0.633519777072546
0.577405518107344
0.33978703285321
0.142357408382923
0.0402699484342778
0.0294966351872528
0.0311577280809825
0.0231257130784241
0.0172423750725654
0.0139182863019287
0.011680609311732
0.0104009956607197
0.00995300125484985
0.0102135899594498
0.0112094660677202
0.0129442681695516
0.015402601590637
0.0183852189502123
0.0218619244020631
0.0257618744203791
0.0299005993902396
0.0340581011640747
0.0385054119759576
0.0434271141278023
0.0486261737365357
0.0540825391218549
0.059787496957436
0.0658741996054516
0.0825349282770335
0.105237157466763
0.124630164166112
0.141585974025756
0.157077089221515
0.171297942677882
0.184165881806745
0.195554971137984
0.20567407264713
0.214531182019533
0.222157199361806
0.228589115814166
0.233874935577605
0.238072612817023
0.241249260287286
0.243478413588588
0.244838040906311
0.245407973406196
0.24526803622029
0.244496214180276
0.243167362257622
0.241352149170261
0.239116403600141
0.236520650511286
0.23361994403997
0.230463828076693
0.227096490138301
0.223556957479192
0.219879485439232
0.216093702635154
0.21222456303012
0.208294144949924
0.204320449182289
0.200318341890654
0.196300600571611
0.192276885207201
0.188254547223546
0.184239024167248
0.180233929871628
0.176241219332334
0.172261322297648
0.168293232876953
0.164334606401704
0.160381755315171
0.156429724137762
0.152472143247192
0.148501338827597
0.144507913260373
0.140481050910964
0.136407496080229
0.132272478588161
0.1280573483453
0.123743966555405
0.119283152059796
0.114698885875958
0.110002545850002
0.105139151852987
0.100014472796905
0.0945705096501598
0.0886748239806884
0.082262685405821
0.0751381501375106
0.0670450229029051
0.0568340870819665
0.0507284845895205
0.0557039892028382
0.0625610587424997
0.0719936628385505
0.0827624504404712
0.0954022793317673
0.110743257938419
0.129591698958802
0.149954116836821
0.171840696005406
0.194712898571679
0.217890505128471
0.237243636565284
0.255807464787224
0.275909546980877
0.298856749068061
0.327359452170079
0.368081851823063
0.432160556204587
0.512036609502942
0.612520375725169
0.751505324230675
0.921546946258335
1.03836974455785
0.864405453140908
0.670515114487682
0.545780971085895
0.595481075975322
2.29758786171822
2.10717149198648
1.41590324426998
0.603491284450066
0.15952690680913
0.107765384285807
0.113522806314908
0.0850308224408153
0.0633938020690413
0.0510675391094473
0.0427889033408708
0.0380496785700439
0.0363461483412537
0.0372690982616756
0.0409234612064506
0.0473229638625519
0.0563529210661742
0.0673051277357375
0.079977397663017
0.0939363542432057
0.108373554126899
0.122677745180131
0.137615545682806
0.153448325018868
0.169743196679426
0.186901561654269
0.206888981492875
0.238590891900597
0.295431486075136
0.355721991813018
0.404104947213661
0.445472862697829
0.482356524523278
0.515652012591369
0.545543403939969
0.571744698461025
0.594547066206578
0.614136684312547
0.630718638641523
0.644483413271894
0.655622083640221
0.664326285335558
0.670789154799614
0.675202670264944
0.677756004855551
0.678632870265504
0.678009741773633
0.676054026649051
0.672922895594096
0.668762363483783
0.663706851916218
0.657878953174043
0.65138955814008
0.644338127208911
0.636813192744068
0.628892915812
0.620645850021196
0.612131374017086
0.603399361507518
0.594493858964405
0.585451314371329
0.576301249632555
0.567068489736663
0.5577719580107
0.548425633694224
0.53903926158152
0.529618574290024
0.520165554392387
0.510678637897802
0.501152827601798
0.491579791557426
0.48194777755013
0.472241611207237
0.462442311374632
0.452527046917394
0.442468201964488
0.432233495195282
0.421783890105631
0.411074458577446
0.400049765085952
0.388650678738654
0.376788247942021
0.364616231996681
0.352102552257759
0.339008309565668
0.325084317973761
0.310104708064519
0.293732657276507
0.275622905036727
0.255290301323546
0.231731858562854
0.201562972072347
0.179447663260302
0.188067849979068
0.209148605635972
0.238776294273309
0.273617606252404
0.315118719785023
0.36587717465721
0.428157637760982
0.496829558510926
0.571414405152653
0.650472053918588
0.731805238697692
0.804142124092697
0.874933161591132
0.951543912731583
1.03882449925509
1.14581583174453
1.29433299616313
1.51974280219776
1.80166075813152
2.15177719713902
2.6127390428556
3.15420093090946
3.56904850239874
3.37326240964673
2.87552491825937
2.34716016326555
2.27391583198382
3.22305787245032
2.87102961417731
2.25158115840036
1.24673173620323
0.335476143603065
0.194502901606828
0.199188661534879
0.153355978415217
0.116003445131652
0.0936536834597208
0.0784945693417388
0.0695590938730117
0.0660853492836039
0.0672873389237712
0.0731784132658689
0.0834431147139274
0.0973407390364
0.113108082676548
0.129723684146343
0.145986786398758
0.160702726981964
0.173486431039028
0.185770081418052
0.198623425416889
0.212621224965463
0.229380550761727
0.251659314254028
0.281683147686293
0.326388681265993
0.37275128311373
0.411158149038913
0.444687143750375
0.47446540977806
0.500584969481787
0.522976290361015
0.542970495971369
0.560571337329624
0.575914932116995
0.58912557690852
0.600320419144765
0.609617664305631
0.617136996716145
0.623000194531261
0.627329937898523
0.630248697154628
0.631877219522781
0.632333242267061
0.631730260078277
0.630176558953896
0.627774443727944
0.624619709161004
0.620801280923639
0.616401057198838
0.611493892539183
0.606147714347186
0.600423740463412
0.594376729290053
0.588055313369
0.581501940207783
0.574754020526389
0.567844029208787
0.560799529996671
0.553643919291256
0.546396546993861
0.53907296061881
0.531685261875958
0.524242329716379
0.516749995911486
0.509211180943446
0.501625983755558
0.493991727419993
0.486302937892711
0.4785512756232
0.470725364915727
0.462810577572156
0.454788637397807
0.446637198813158
0.438329081280823
0.429831520688799
0.421104795407595
0.412101124401154
0.402778281136747
0.392855004517764
0.382392644353568
0.371394900558313
0.359687966999107
0.347067957880885
0.333238421843357
0.317855138992238
0.300335501440349
0.280078289764114
0.25378413650742
0.233495708304131
0.238266394738395
0.255114272265307
0.282657538800905
0.318510523980066
0.363029710895819
0.418237919530865
0.485636570843078
0.562610939409039
0.647720090063058
0.739865424378245
0.83719474974726
0.934174452793441
1.03456652682508
1.14501753383274
1.2717342274969
1.42316227779873
1.61609279501672
1.87228526166689
2.17557854423952
2.51409913862349
2.87436453964058
3.21211894089894
3.44841060573412
3.45482411569431
3.44821645811456
3.44393434469655
3.45090059567977
2.78054217741019
2.48408305893551
2.17034949343336
1.65895082100405
0.623985057751369
0.270391055211216
0.242699996670948
0.194858526035162
0.15243609503913
0.12416731255339
0.104242070018674
0.0919070936850068
0.0863656351032755
0.0864949244468834
0.0917464980404626
0.100945685293417
0.11244258580717
0.124164186866383
0.13522113344142
0.145047066453848
0.153471770984758
0.161020938851287
0.169084866889116
0.178627026287888
0.190430249903671
0.205950140412826
0.226881624235559
0.253836222430044
0.288350998669688
0.322630984348178
0.351679867909456
0.377318341492208
0.400041185356317
0.419712118338602
0.437039867775078
0.452605003923317
0.46639354275407
0.478495061037898
0.488987649938773
0.497949143571075
0.505460073800128
0.511603836135472
0.516466518795553
0.520135988197996
0.5227008427768
0.524249268108698
0.524867968202455
0.524641204690793
0.5236499927808
0.52197146210021
0.519678381706307
0.516838828678668
0.513515992229731
0.509768100314272
0.505648437221226
0.501205451643496
0.496482931487511
0.491520130095298
0.486351843867973
0.481008936341716
0.475518608380141
0.469904482850136
0.46418688608123
0.458383154048861
0.452507756386212
0.446572517084032
0.440586803777894
0.434557673350996
0.428489988677412
0.422386509530508
0.416247945923828
0.410072985451842
0.403858264235413
0.397598318498704
0.391285437206998
0.384909523115554
0.378457748662426
0.371914319513013
0.365259738376816
0.35847055175915
0.351517042852722
0.344377767723174
0.336909786319619
0.328960891664418
0.320625090629462
0.311835260566443
0.302464504022307
0.292334208825181
0.281211447230636
0.26872663640808
0.254505011262462
0.236561129618985
0.221503358397064
0.220995774442259
0.230150604559653
0.248708663919532
0.275242412987014
0.309325840382076
0.351839869565561
0.40341102677904
0.462976474885079
0.52930962078216
0.601582186862163
0.678577187392789
0.75843125734431
0.842579349008751
0.934862736203317
1.03981293490004
1.16289834054731
1.31243231688003
1.49532327606612
1.70236954290148
1.91920933242935
2.12462811492562
2.29802493414367
2.43806821013487
2.52635959660419
2.60934581233349
2.79987834147802
2.92576320373714
2.23090054646277
2.03746235718677
1.87851592654061
1.76912506926691
0.965642816331125
0.357984481517991
0.24599528266935
0.198792818780869
0.160477916073373
0.132084309567915
0.111137490886958
0.0976634894313605
0.0909197165465698
0.0897621557866361
0.0932551151374142
0.0998943940114988
0.107981213117235
0.115996560188061
0.123436533519971
0.130115342790351
0.136207992801595
0.142332687632812
0.149462129334921
0.158333467242267
0.169749534430622
0.184924318358521
0.204980754952418
0.22996680460126
0.258358077805771
0.285002771014034
0.308085586638082
0.328679330341479
0.346957704898274
0.363007190794348
0.377339457570435
0.390234612590932
0.401692094023313
0.411777401377555
0.420547653152169
0.42806203818834
0.434382666625963
0.439574742119142
0.443706112247834
0.446846524354281
0.449066684906961
0.450437324128045
0.451028288492853
0.450907745609387
0.450141501913363
0.448792459733654
0.446920202426179
0.444580701156004
0.441826125964434
0.438704761306519
0.435260992646156
0.431535385791528
0.427564822020447
0.423382460286834
0.419018000873321
0.414497899170054
0.409845653737223
0.405081904189703
0.400224583045488
0.395289204496846
0.390288967349503
0.385234918311483
0.380136110572793
0.374999731033864
0.369831205092366
0.364634284034275
0.359411103296676
0.354162227437133
0.348886648964114
0.343581787118178
0.338243400519558
0.332865540801333
0.327440317659243
0.321957828723827
0.31640561998923
0.31076872141637
0.305027659490937
0.2991687460466
0.293116400080729
0.286747643331902
0.280088700872258
0.273125408392493
0.265785956120804
0.257965551760822
0.249513951284744
0.240217278326745
0.229821892397421
0.217223139982727
0.205599791900067
0.202228308963163
0.206832366072972
0.219402668990256
0.23904373369757
0.265129294939846
0.297913003496911
0.337557441235604
0.383508007145837
0.434858762870375
0.49093690885788
0.550875278877491
0.614027029135431
0.681047459064272
0.754070716375227
0.836034685626026
0.930425634517221
1.04152311676897
1.17104597338501
1.31381327101573
1.46006026743191
1.59455464416762
1.70744453071662
1.81070357970784
1.92083944615293
2.01431248561782
2.17085476484348
2.28674340825189
1.82093262614552
1.69948464078101
1.60596986079262
1.69968016501102
1.22783801279767
0.481338864034117
0.245759412613017
0.187679584730704
0.153349340440644
0.127083219266597
0.107354022318016
0.0945046658728464
0.0878233703848041
0.0862831990870585
0.0888254127244631
0.0939438155939232
0.100127443035483
0.106280824405731
0.112083935454251
0.11749613511905
0.122793052390688
0.128544657363406
0.135473649183475
0.144203410945618
0.155498948082795
0.170349217325961
0.189480853884453
0.212434202376481
0.236521115086811
0.258362834130747
0.277654396392972
0.295004121196205
0.310471149183257
0.324223963852586
0.336588444485912
0.34771804958351
0.357621790282875
0.366350990050181
0.373951323462424
0.380471359177466
0.385962526745355
0.390479310403164
0.394078694861253
0.39681952678998
0.398761662455066
0.399965160478827
0.40048948501946
0.400392815773789
0.399731449653106
0.398559323556048
0.396927645924358
0.394884634467564
0.392475340792273
0.389741566471557
0.386721838793857
0.383451513008066
0.379962757149105
0.376284618680766
0.37244325486881
0.368462039947621
0.364361827544063
0.36016105575303
0.355875854287352
0.351520292222465
0.347106476968072
0.342644688881707
0.338143517975688
0.333609978661788
0.32904960652051
0.324466541964643
0.319863591286982
0.315242279293506
0.310602866305968
0.305944369476584
0.301264517280038
0.296559745333648
0.291825044743601
0.287053958344989
0.2822382091395
0.277367817813202
0.272429609202938
0.267414133870828
0.262278596140257
0.256940292248322
0.251391137184678
0.245631843587886
0.239623608269013
0.233306126769382
0.226585024280487
0.219339014270933
0.21139951337249
0.20218870490173
0.193107954073553
0.18870410719135
0.190670742963988
0.199420182180722
0.214419262682997
0.235058847891048
0.261281559814729
0.292999942428724
0.329830515057045
0.371091254494571
0.416217939594369
0.46454550907314
0.515879475561963
0.570631936781898
0.630074774416495
0.696155256326088
0.771228237740245
0.857707959243745
0.955473180523323
1.06123227195652
1.1686630563531
1.26742395744254
1.35200093208666
1.43433537721269
1.53989213847277
1.63774074469435
1.75900492454452
1.84209492543352
1.53278849224112
1.45284630344157
1.38950853122369
1.56102049430277
1.36158143642852
0.631743612196888
0.260146625341007
0.178012137379596
0.14430462325446
0.119956452591585
0.101753548376159
0.0899164096500261
0.0836965888567722
0.0821463028058556
0.084186231482463
0.0883985468137354
0.0934665018063039
0.0985639979389066
0.103478046478154
0.108246683542662
0.113180526806207
0.118791057054803
0.125656896136533
0.134328542907229
0.145497634827665
0.159945356263183
0.17808314792813
0.199087696624404
0.220022848223596
0.238692756773392
0.255435449069836
0.270580389173152
0.284149063815432
0.296319202966852
0.307298952835382
0.317182496904494
0.325983947413005
0.333745421689147
0.34050546057264
0.346305805445921
0.351190979601288
0.355208482714259
0.358408195078899
0.360841802095662
0.362562006266609
0.363621800129123
0.364073744245427
0.363969345471231
0.363358516017628
0.362289141095149
0.360806744307578
0.358954248604084
0.356771813675768
0.35429675574955
0.351563532643584
0.348603828119963
0.345446462574958
0.342117564409733
0.338640724406608
0.335037073335012
0.331325513794158
0.32752282815609
0.323643770256284
0.31970127649487
0.315706564329402
0.311669251186285
0.307597476207066
0.303498006336604
0.299376327730582
0.29523672659833
0.291082352212763
0.286915273753334
0.282736509914864
0.278546063293971
0.274342904538176
0.270124991825045
0.265889180034613
0.261631250515573
0.257345666268062
0.253025714080662
0.248662441250983
0.244249314137639
0.239761007556241
0.235143931586805
0.230378037759866
0.225467918401417
0.220394168436722
0.215124687733134
0.209603616076635
0.203767289267565
0.197507624769523
0.190567380989536
0.183448093984263
0.178924333840027
0.17936402728209
0.185579146255349
0.197337264679334
0.214126632575544
0.235743050565558
0.261961292643955
0.292457357629946
0.326694022076067
0.36418758175546
0.404403889212182
0.447339047575896
0.493329746936046
0.543203849486596
0.598312589496982
0.660337870713284
0.730740345167117
0.808695761407026
0.891862204761671
0.976035719269636
1.05401528996667
1.12225385183516
1.19058147895942
1.2840580675669
1.37954046047831
1.48244209858284
1.54377268575175
1.32513130542346
1.268980395437
1.22247759108631
1.40765574850912
1.41724488700865
0.787162586845089
0.293767288413207
0.174401738790243
0.13754252674283
0.114233200780322
0.0971962410140572
0.0861895183389935
0.0803798551431028
0.0788441327619061
0.0805124338666312
0.0840712844934085
0.0883674633798868
0.0927520689597198
0.0970843494996146
0.101450362851512
0.106168182538704
0.111696429627139
0.118521619660011
0.127133673021805
0.138135667651655
0.152124075228702
0.169263960723295
0.188524586465834
0.207101471882163
0.223570475987309
0.238510950945188
0.252084577525482
0.264304004591955
0.275326078872375
0.285288421446107
0.294254735647583
0.302241496222268
0.309284453512622
0.315417311086971
0.320677094859063
0.325103568555381
0.328739410322076
0.331629599668677
0.333820876890634
0.335360999279195
0.336298064009432
0.336679836200143
0.336553171843229
0.335963516040274
0.33495450142106
0.333567637952665
0.331842091121393
0.329814530016816
0.327519051488245
0.32498719562839
0.322247935186296
0.319327664678025
0.31625035991905
0.313037698619136
0.309709130597181
0.306282082303433
0.302772065781203
0.299192766538821
0.295556226237378
0.291872941477109
0.288151973744227
0.284401061068567
0.280626718128626
0.276834324149884
0.273028201905772
0.269211682406965
0.265387164633854
0.261556154443324
0.257719307750635
0.253876436453634
0.250026543423706
0.246167776649792
0.242297479706669
0.238412041471295
0.234507046689673
0.230576549815045
0.226616253465598
0.222610999036203
0.218526190217427
0.214341796164231
0.210062042190136
0.205679784054928
0.201181717913209
0.196539297775158
0.191726751058099
0.186680461509704
0.181340461160425
0.175755833563413
0.171532641795653
0.171117688070794
0.17560372498497
0.185012330428841
0.198958045574875
0.217179238599762
0.239377741855301
0.265250199650553
0.29435363529657
0.326265265973682
0.360542839218072
0.397268114908756
0.436754974681382
0.479591585782076
0.526761181944524
0.579520650607155
0.638794815681733
0.703497065895604
0.771822366815347
0.840870726504695
0.905433362172716
0.962929875170107
1.02108727055999
1.10187586629968
1.1905241922415
1.28246574449105
1.33254976164237
1.16879718189598
1.12724345729244
1.09239816200357
1.26105484671516
1.41744014294577
0.932781491569248
0.349311285466133
0.177937584903454
0.133745235547476
0.110422117669832
0.0940807546343791
0.0836158575125564
0.0780601187132662
0.0764728276365713
0.0777972769079241
0.0808184855052153
0.0845155743525508
0.0883610719959435
0.0922650141640083
0.0963424600227713
0.100905379200477
0.106366766492852
0.113147583443592
0.121681450796527
0.132480088887562
0.145981625800043
0.162167229109733
0.179918632034814
0.196700226459644
0.211583423575309
0.225203299545878
0.237620931678721
0.24884545683311
0.259007946597324
0.268202159952249
0.276474792640623
0.28384314613429
0.29033837416822
0.295990721297809
0.300833818174116
0.304904030659403
0.308240605794836
0.310885049819473
0.312880603338605
0.314271525822694
0.315102448215728
0.315417733563082
0.315260928674849
0.314674288778253
0.313698396905108
0.312371871250379
0.310731156166147
0.30881037889798
0.306641286453122
0.304253262156695
0.301673256596637
0.298925864853766
0.296033442989737
0.293016216799772
0.289892352860509
0.286678141053103
0.283388104069688
0.280035086355991
0.276630415862578
0.273184003391719
0.269704447451612
0.266199139261752
0.262674358835152
0.259135360713408
0.255586451971257
0.252031058526463
0.248471787240551
0.244910472045099
0.241348223725776
0.237785452372609
0.234221913754501
0.230656697404374
0.227088292010438
0.223514506310299
0.219932624475044
0.216338935589512
0.212730946697421
0.209099869104569
0.20542378593193
0.201686645386922
0.197892315390611
0.194041594368169
0.19013413579945
0.186161186776948
0.182122888654385
0.177989293823594
0.173821167283747
0.169447768768169
0.165703580800442
0.164854064296295
0.168146209325714
0.17580615728298
0.187579978167564
0.203199529007964
0.222334071686958
0.244688468939815
0.269882815788427
0.297541199141271
0.327289448817399
0.359247894410378
0.393723020786142
0.431167706412961
0.472330783759803
0.51818692908011
0.569337852404933
0.624626871152188
0.682592297115232
0.741160890117183
0.796407008503202
0.84622793308564
0.896589312035718
0.965953499809482
1.04595932030802
1.12932426732255
1.17373864847547
1.04608472600563
1.01429470337189
0.988791101387979
1.12954364597859
1.37981198227642
1.05356601911318
0.428307288396716
0.189522106788126
0.132942660715295
0.108380163219567
0.0922641168399371
0.0820615257997995
0.076597729098066
0.0748804464160921
0.0758592802537804
0.0784047375758064
0.0816020426252853
0.0850093696344907
0.0885725345075333
0.0924228793065195
0.0968593792340658
0.10225563341148
0.108981602114203
0.117417199390069
0.127986740718399
0.140996706851616
0.156297677270609
0.17276392904439
0.188160223494532
0.201870381799112
0.21449978793599
0.226048967041712
0.236523441806266
0.246030405375797
0.254635381653945
0.262374825099036
0.269266022594446
0.275336704740776
0.280614560940193
0.285130725109014
0.288919102099556
0.292016474303965
0.294461871721927
0.296296049023215
0.297560785626175
0.29829825368464
0.298550398430773
0.298358407296737
0.297762251750861
0.296800320599391
0.295509139861075
0.293923173349566
0.292074686252745
0.289993708379245
0.287707992092073
0.285242989103025
0.282621940335342
0.279865971646052
0.27699419671661
0.274023792377478
0.270970164406639
0.267847057745928
0.264666648624391
0.261439691379987
0.258175618622888
0.254882643415638
0.251567860105218
0.248237337878224
0.244896205353862
0.241548728292034
0.238198377566272
0.234847893443435
0.231499337565412
0.228154148093979
0.22481317507316
0.221476735836642
0.218144629236577
0.214816212975381
0.211490378818871
0.208165713005446
0.204840217400943
0.201512891903694
0.198179190471665
0.194825914233274
0.19144187687846
0.188031391049285
0.184600652462411
0.181158468438637
0.177710627168778
0.174275420537548
0.170848886701272
0.167563764464599
0.164152759709037
0.160945584551717
0.159927870497018
0.162397626534487
0.168734981598279
0.178810074818314
0.192377432975999
0.209100048425955
0.228688856042911
0.250807843342636
0.275117860950837
0.301297153680296
0.329481951654918
0.359974550368671
0.39314851477581
0.429599271414534
0.470106712102308
0.515068225119139
0.563348792570097
0.613732355791157
0.664683861666057
0.713111412421866
0.757122348403553
0.801255377175288
0.860815008675696
0.931871948159567
1.0074329375261
1.04856587365135
0.946408557074117
0.921656561342291
0.90406739632016
1.01508666990135
1.31779304276066
1.14193869731577
0.527990168486157
0.210603509440746
0.135270309991889
0.107946964686699
0.0915679126424025
0.0813664785295671
0.0758426084989917
0.0739194379545706
0.074540280264902
0.0766453117774073
0.0794041929792953
0.0824363681671899
0.0857122747469037
0.0893707292443092
0.0936941925636988
0.0990217475812984
0.105681007927221
0.11400093077515
0.12432584830806
0.136855648160516
0.151353291880987
0.166734569795796
0.181051639496759
0.193879523386499
0.205756261096492
0.216645652912945
0.226548538702133
0.235551579026065
0.243701499674319
0.251028096877256
0.257548188259795
0.263286894641684
0.268269985089474
0.27252674980359
0.276089319890778
0.278992728058028
0.281274267874582
0.282972962074898
0.28412886776287
0.284782449042971
0.284973967259318
0.28474295923422
0.284127789388066
0.283165291709932
0.281890498415888
0.280336447765402
0.278534059111279
0.27651210302205
0.274297113742226
0.271913435034582
0.269383289327196
0.266726868370426
0.263962433273258
0.261106395606953
0.258173471076589
0.255176790913681
0.252127998121298
0.249037384044074
0.245913989687661
0.242765706854104
0.239599376639923
0.236420881645334
0.233235230233176
0.230046634521572
0.226858580112742
0.223673892511461
0.220494794039263
0.21732296358021
0.214159582295364
0.211005396584797
0.207860752834811
0.204725684919723
0.201599931431837
0.198483102210533
0.195374542730677
0.19227450424498
0.189181413261082
0.186088220848102
0.182988395324762
0.179887354069392
0.176795179158618
0.173727268125801
0.170700166886498
0.167745023190625
0.164878100375965
0.162272594073302
0.159630286638505
0.156957619333539
0.155940177834348
0.157852623534156
0.163181385850739
0.171906127033941
0.183819861073396
0.198596697992013
0.215955460439957
0.23559222156654
0.257197328316873
0.280490582948978
0.305612810465604
0.332861594435186
0.362562490352346
0.395208286520648
0.431440403166323
0.471523711958032
0.514391689183196
0.559020200429843
0.604228812404337
0.647462854865164
0.686881239082635
0.725869089646531
0.777109611120581
0.839637561957854
0.907801470187866
0.946492891529258
0.863265549232977
0.843865548568707
0.832977237049287
0.917111124087016
1.24054987889343
1.19637987603646
0.640816520441431
0.243292368550316
0.141157981252037
0.109078660331195
0.0918782022699648
0.0814192590122422
0.0756884959704333
0.073484854989738
0.0737284606550566
0.0754117481591617
0.0777703992446365
0.0804674999797184
0.0834894217397111
0.0869761392739916
0.0911918119410758
0.0964447305332142
0.103025816886806
0.111216385315035
0.121289765278112
0.133361612506223
0.14714045753522
0.161610875840224
0.175082603133429
0.187241597914954
0.19854412228585
0.208931339504727
0.218398438425645
0.227014736758883
0.234813978560053
0.241821270125113
0.248052717099396
0.253531413642115
0.258281679523301
0.262331461816746
0.265711649742534
0.268456083724297
0.270600898783734
0.272183975304938
0.273244240441429
0.273821036919406
0.27395351537194
0.273680115268877
0.273038122006316
0.272063313524713
0.270789694960991
0.2692493119248
0.267472147753698
0.265486050681026
0.263316680788979
0.260987571783627
0.258520190614317
0.255934027447689
0.253246695211995
0.250474017168081
0.247630172308129
0.244727808547291
0.241778143550999
0.238791094684075
0.235775381908453
0.232738629053798
0.229687461388255
0.226627597443199
0.223563933602629
0.220500622871714
0.217441146482162
0.214388382480629
0.211344666939358
0.208311857807614
0.205291389122877
0.202284340515881
0.199291488339232
0.196313402132046
0.193350494761074
0.190403196064372
0.187471924280646
0.184557987035719
0.181661981996399
0.178781296157745
0.17591348236886
0.173065445707106
0.170250221131992
0.16748801904663
0.164803351760633
0.162236470837249
0.159819361230443
0.15774519698255
0.155719263306687
0.153548803897877
0.152635849312809
0.154182980432326
0.15874099092798
0.166380911333999
0.176941364637355
0.190118861365766
0.205643184717548
0.22323524395995
0.2426096556688
0.263519978690331
0.286106005965347
0.310659309989084
0.337475601154985
0.366977781277757
0.399706672118233
0.435841245346908
0.474408735586616
0.514543894977088
0.555297102139463
0.594447367691011
0.630106434584635
0.664721817349189
0.708887193870769
0.763602056619419
0.824765147979325
0.861205592430544
0.792494402498359
0.777304823222644
0.771940205706299
0.834055994438665
1.15428673254972
1.21916470667026
0.755362498275109
0.290328445287885
0.151405557502215
0.111876459611006
0.0931568322513199
0.0821616105481665
0.0760731116897735
0.0735110459308905
0.0733508541005424
0.0746183453132817
0.0765987732307194
0.0789852804040575
0.081773090777055
0.0850986075079835
0.0892067821554381
0.0943779558619532
0.100870440862195
0.108921729477643
0.118743552647229
0.130386586481339
0.143529704503408
0.157239241462288
0.170048304074786
0.181700633511549
0.192567583717405
0.202575857883449
0.211714297264212
0.220037481012895
0.227569790844556
0.234332744167957
0.240341605161348
0.245617870453085
0.250184776363153
0.254069328439853
0.257301605268985
0.259914710068556
0.261944091710146
0.263426970191816
0.264401626332843
0.264906759709328
0.264980876644801
0.264661768694718
0.263986070503038
0.262988907897412
0.261703636450276
0.26016166413738
0.25839235515317
0.256422918537914
0.254278416750365
0.251981811919908
0.249554027720311
0.24701404049321
0.244378980218006
0.241664224921108
0.238883541007659
0.236049198960989
0.233172079041365
0.230261797455308
0.227326811315751
0.224374520964139
0.221411367724259
0.218442926147335
0.215473989497829
0.212508649723331
0.209550371074396
0.206602060930559
0.203666134865652
0.200744584266176
0.197839037669763
0.194950836071267
0.192081097337411
0.189230820707394
0.186400963007481
0.1835926200178
0.180807078018321
0.178046539675754
0.175313242568661
0.172607835688447
0.169931314271348
0.167292223109624
0.164705935713405
0.162196210237124
0.15979342734023
0.157544206026877
0.155492625716267
0.153838579460042
0.152308126821245
0.150594065280641
0.149846734349971
0.151168432689686
0.1551391509274
0.161902005894992
0.171342549234834
0.183186550545796
0.19717785870297
0.213057787225659
0.230561456604752
0.249470436798991
0.269920860258579
0.292197211128478
0.316576262009109
0.343432691735452
0.373233245747961
0.406103409545222
0.44117843907113
0.477728249840286
0.514945078678925
0.550796919697192
0.583285169391553
0.614090898664974
0.652193222635578
0.69989229224105
0.754507265846932
0.788661585539906
0.731313707328142
0.71950221768804
0.718519937790032
0.763965082838316
1.06396017133987
1.21472939677745
0.861758456226388
0.354106421108019
0.167257125286899
0.116606678568366
0.0954406652913928
0.0835826667516938
0.0769708898561514
0.0739636184216836
0.0733639257211129
0.0742102240436732
0.0758217399859634
0.0779104314993736
0.080474292256838
0.0836424013318828
0.0876400101786341
0.0927216973413343
0.0991163874914287
0.107021886985593
0.116597479495091
0.127844984196979
0.140431557348682
0.153509228422038
0.165801316471796
0.177074210174337
0.187616583192666
0.197345228635685
0.206242166576013
0.214349210079986
0.221683621796491
0.228263940394903
0.234104516162987
0.239225570613995
0.24364955225923
0.247402860656973
0.250515128503309
0.253019109219069
0.254949968000434
0.256344674708413
0.257241274566318
0.257678229088514
0.257693794218067
0.257325492121157
0.256609666414949
0.255581129171535
0.254272901809554
0.252716057843792
0.250939585216788
0.248970309816745
0.246832918590255
0.244549999614704
0.242142108914191
0.239627864313672
0.237024049459386
0.234345715359132
0.231606318327581
0.22881783895215
0.225990892924318
0.223134855684839
0.220257969973015
0.217367449958779
0.214469580085285
0.211569808425723
0.20867283356246
0.205782686135969
0.202902804628947
0.200036108517598
0.197185066885979
0.194351769571332
0.191537994604208