/*--------------------------------*- C++ -*----------------------------------*\
  =========                 |
  \\      /  F ield         | OpenFOAM: The Open Source CFD Toolbox
   \\    /   O peration     | Website:  https://openfoam.org
    \\  /    A nd           | Version:  7
     \\/     M anipulation  |
\*---------------------------------------------------------------------------*/
FoamFile
{
    version     2.0;
    format      ascii;
    class       volScalarField;
    location    "8000";
    object      k;
}
// * * * * * * * * * * * * * * * * * * * * * * * * * * * * * * * * * * * * * //

dimensions      [0 2 -2 0 0 0 0];

internalField   nonuniform List<scalar> 
15600
(
0.000320833797619209
0.000292706017423961
0.000171226826652716
6.92474220197042e-05
1.81177841959405e-05
1.25161591873552e-05
1.31001847120274e-05
1.00546664381324e-05
8.0049345498865e-06
7.07785021885332e-06
6.62623175500595e-06
6.56776155907025e-06
6.93261286922062e-06
7.78336293519205e-06
9.27710114015243e-06
1.15570081686756e-05
1.47898678857879e-05
1.90846672919547e-05
2.46771602930464e-05
3.17820065148377e-05
4.04812344457048e-05
5.06985258153833e-05
6.26532346670322e-05
7.6366479428851e-05
9.1146868661905e-05
0.000106280069171685
0.000120798849731507
0.000133873956828577
0.000167192854607682
0.000213181272789698
0.000252466122923929
0.000286813888784049
0.00031819458981977
0.000347002093412818
0.00037306896921488
0.00039614010563264
0.000416638599581029
0.000434580647988376
0.00045002884584016
0.000463058126849036
0.000473765734122065
0.000482269066630983
0.000488704076109627
0.000493219725200349
0.00049597395574044
0.000497128483458889
0.000496845011872784
0.000495281516573515
0.000492589632935297
0.000488912516155416
0.00048438351687099
0.00047912524186603
0.000473249215554556
0.000466855800127151
0.000460034507253252
0.000452864395346397
0.000445414856250079
0.000437745909358083
0.000429908104500861
0.000421946166261912
0.000413896559271228
0.000405789398266936
0.000397650566929557
0.000389499633725771
0.000381351490622673
0.000373217152598052
0.000365103940292165
0.000357015813999395
0.000348953644285266
0.000340915393508861
0.0003328963120362
0.000324888929914601
0.00031688320873179
0.000308866245415565
0.000300822494960692
0.000292732920417571
0.000284575612332068
0.000276323718358962
0.000267947318239022
0.00025940863209641
0.000250670915801058
0.000241634542009657
0.000232348089607103
0.000222834607025298
0.000212982719860362
0.000202601542144445
0.000191573584017209
0.00017963056202617
0.000166641350466005
0.000152209021592578
0.000135814594859845
0.00011513007485491
0.000103093811837257
0.000112548229881777
0.000122941576659363
0.000134947814393561
0.000145537553229078
0.000155231696553802
0.000164851205347294
0.000175449029223493
0.000184995933490857
0.000193969191110062
0.000202120539742425
0.000209222536209606
0.000211817793622936
0.000211709591522889
0.000210259466336621
0.000208164149830212
0.000206712786048531
0.000208807230493417
0.000219766121409983
0.000237717818194133
0.000266313456969404
0.00031596845742567
0.000391035367159385
0.000467171284930459
0.000420475952683537
0.000337888683415776
0.000276674487185052
0.000301569835951297
0.0054729036201332
0.00501292540533093
0.00311570389980059
0.00131112009812258
0.00034653660357493
0.000231350719711434
0.000242230423111881
0.000187211038390067
0.000148653275019861
0.000130991308433807
0.000122268042567459
0.000120845282812708
0.000127145340927542
0.000142288272089901
0.000169098994920979
0.000210134989706768
0.000268313734058596
0.000345443126434096
0.000445358070858095
0.000571247647488702
0.00072362367317702
0.000900125128491114
0.0011027378728738
0.00132955894691914
0.00156815287780028
0.00180702616098687
0.00203510202638495
0.00226915246932227
0.0027810236148927
0.00341830664668997
0.0039393248333099
0.00438224855421167
0.00477824154115335
0.00513518877287387
0.00545363869541923
0.00573076075039976
0.00597445098109902
0.0061861534791675
0.0063676324773403
0.00652051909436346
0.00664648048942575
0.00674722614124315
0.00682452265252062
0.00688016485685536
0.00691595847336935
0.00693368885782881
0.00693509970336851
0.00692186979086297
0.00689559717508076
0.00685778563425275
0.0068098366612963
0.00675304355259942
0.00668858984789612
0.006617549390938
0.00654088936053159
0.00645947389935303
0.00637407090314986
0.00628535440467932
0.00619389970706312
0.00610022335130849
0.00600475912974513
0.00590786867923559
0.00580986572566448
0.00571099773742909
0.00561145870843548
0.00551139688607544
0.00541091654975469
0.00531008083956952
0.0052089139822575
0.00510740256904829
0.00500549685383668
0.00490310989471606
0.0048001180320345
0.00469635666893527
0.00459162080720792
0.0044856543809323
0.00437815372644754
0.00426874293865083
0.00415698834360262
0.00404234281829991
0.00392423939243112
0.00380127274540424
0.00367414987471952
0.0035431000209295
0.00340632248012368
0.00326106681364248
0.00310524878724987
0.00293488912667584
0.00274709899367079
0.00253587885823503
0.00229129043686719
0.00197712246647847
0.00178133496233581
0.00191423653683276
0.00208123116292262
0.00227409450339801
0.00244892964602828
0.00261320147245152
0.00277939600634767
0.00296137706027064
0.00312845193075541
0.00328617491233776
0.00343041871764537
0.00355598178310964
0.00361138037862748
0.00362426201811847
0.00361561969716553
0.00359658408188369
0.00358845671724756
0.0036397862440546
0.00383303131348959
0.00413269023665091
0.00459409861472713
0.00535383427006399
0.00642737885435889
0.00744283034524881
0.00691015484263746
0.00582542097056369
0.00490507817268446
0.00520547738152636
0.017628235413204
0.0163935406480878
0.0124912271153319
0.00676614832265406
0.00197605806831793
0.00116995350077345
0.00121911969766133
0.000962845752818513
0.000770484228827944
0.000678290376685167
0.00063193573777482
0.000621907591758786
0.00065006924333147
0.000721666783076618
0.00084892181363864
0.00104042254301324
0.00130264722206595
0.00163443262345576
0.00203763686242366
0.00250574882895506
0.00302173973788608
0.00356640821691011
0.00413643585181482
0.00472209657689254
0.00530318297990278
0.00587866948150509
0.00647589817998006
0.00718061268644376
0.00831969864585729
0.00954844747384136
0.010536545361661
0.0113776469464461
0.0121266743826757
0.0127986069177257
0.0133973658939702
0.0139257412140842
0.0143925021789561
0.0148011550221714
0.0151551218092761
0.0154574400271077
0.0157110850625123
0.0159190152823099
0.0160842241041366
0.0162097187164471
0.0162985062789145
0.0163535579688079
0.0163777817149248
0.0163739913542362
0.0163448836493598
0.0162930182174707
0.0162208041660934
0.016130489795931
0.0160241579485618
0.0159037241528707
0.0157709387094541
0.0156273905682464
0.0154745138458096
0.0153135924893681
0.0151457535815876
0.0149720120503815
0.0147932548941627
0.0146102441142589
0.0144236466289462
0.0142340207557903
0.0140418283492228
0.0138474448991086
0.0136511633005228
0.0134531978801793
0.0132536874274669
0.013052696856295
0.0128502182845534
0.0126461693649913
0.0124403920217198
0.012232645664874
0.0120226036385575
0.011809837262319
0.0115938113333236
0.0113738497480559
0.0111491348469388
0.0109186349289393
0.0106811725165627
0.0104346900461976
0.0101790900349904
0.00991461413598017
0.00963788426930972
0.00934372921319983
0.00902693101576151
0.00867952123533967
0.00829253122206389
0.00785285055478042
0.00733362456172309
0.00665006375257746
0.00615407395923536
0.0063338395896534
0.00672017120044355
0.00720583948618235
0.00769552843546084
0.0081907204936448
0.0087146491156247
0.00928762846523931
0.00984993903300989
0.0103948149396797
0.0109097451323575
0.0113761098074081
0.011695548349974
0.0119092591753328
0.0120669277602271
0.0122007356402062
0.0123580249648515
0.012649884059668
0.0132547353791727
0.0140910231128503
0.0152242929933692
0.0168228387090845
0.0188100793473169
0.0204254984187309
0.0197837880730935
0.018319610122029
0.0172114640331729
0.0175776787604696
0.0261097981990777
0.024882089894852
0.0209334314897176
0.0142768885681816
0.0059659821309733
0.00324869119900856
0.00320853540907569
0.00263789931461587
0.00216230986360869
0.00190985221709948
0.00177253293173097
0.00172465362354504
0.00177030010231112
0.00191682257585681
0.00218167208369878
0.00256542382975672
0.00305774071368823
0.0036342664325244
0.00428147580864572
0.0049789619949173
0.00570159547750949
0.00643399177685604
0.00718408977265183
0.00794866674163281
0.0087167249499839
0.00950670938028308
0.0103801096821743
0.0114633925947053
0.0130050418383908
0.0145637865605875
0.0158255060366137
0.0169111345372033
0.0178747210135248
0.0187346149681632
0.0194991339758391
0.0201767719483061
0.0207758343581776
0.0213010650765784
0.0217568127190667
0.0221469704423315
0.0224753274328697
0.0227456304283434
0.0229616441611416
0.0231271338054464
0.0232458493390122
0.0233214877968076
0.023357661958821
0.0233578663896691
0.0233254508882372
0.0232635978522881
0.0231753066560894
0.0230633820046529
0.0229304282357357
0.0227788473374142
0.0226108410666771
0.0224284156415201
0.022233389684061
0.02202739733157
0.0218118873759046
0.0215881640097539
0.0213573774911856
0.0211205281120593
0.0208784923043787
0.0206320176644726
0.0203817335859653
0.020128161743327
0.0198717216940441
0.0196127359184794
0.019351433648387
0.0190879532318329
0.0188223434452272
0.0185545622591589
0.0182844749793023
0.018011847742269
0.0177363418623212
0.0174574984935841
0.017174728847872
0.0168872823259075
0.0165942332307227
0.0162944167297043
0.0159864522284127
0.0156682854088694
0.0153384798893741
0.0149967475765524
0.0146398624287418
0.0142623758625728
0.0138579828759674
0.01341765564771
0.0129301206959073
0.0123792193622974
0.0117369287040574
0.0108991691864737
0.010244972106641
0.0103608024030859
0.0108245006597297
0.0114652725577636
0.0121651536827135
0.0129067153076327
0.0137098485432437
0.0145898119227909
0.0154809868411928
0.0163596671261665
0.0172047659160017
0.0179860019277441
0.018597095511923
0.0190691696450268
0.0194643462113443
0.0198322824083817
0.0202342352269762
0.0208031558809774
0.0217390074727639
0.0229514308454979
0.0244688868913333
0.0264278176392508
0.0287670611235718
0.0307790349922306
0.0302023890314623
0.0279595089536133
0.026048876000901
0.026028002407506
0.0317315182846769
0.0306868361051409
0.026930860005146
0.0204959070433658
0.0113693109721803
0.00637371987929031
0.00567463038214405
0.00482145218989834
0.00406886999611488
0.00361474566791426
0.0033389073976346
0.0032057314627823
0.00322126714745246
0.00339204283492459
0.00373286229392055
0.00422819980877035
0.00484686077990072
0.00554836506293011
0.00631288358358736
0.00711710722350717
0.00793900241303059
0.00877257093364385
0.00963313543903086
0.0105215796654441
0.0114354167839573
0.012406745636449
0.0135146147216942
0.0148939844430011
0.0167103956781098
0.0184841512990972
0.019934028487121
0.0211892955594887
0.0223020499140451
0.0232922838829934
0.0241732488429719
0.0249556115538653
0.025647554973158
0.0262545880761857
0.0267816448980092
0.0272331922254468
0.0276135766438702
0.0279270963614701
0.0281780614328058
0.0283707776599356
0.0285095274461076
0.0285985300122088
0.028641906231658
0.0286436419962954
0.0286075586644689
0.0285372883343625
0.0284362564112096
0.0283076689385633
0.028154506070638
0.0279795200148851
0.0277852371710408
0.0275739640339392
0.027347795585545
0.0271086144349205
0.0268581022688956
0.0265977700406079
0.0263289563155831
0.026052832467762
0.0257704253939073
0.0254826186489431
0.0251901626143707
0.0248936851668037
0.0245936986407629
0.0242906057646428
0.0239847042382098
0.023676189802856
0.0233651579599794
0.0230516033509134
0.0227354178411306
0.0224163847066796
0.0220941720738315
0.0217683188602181
0.0214382222116852
0.0211031088978601
0.0207620148070489
0.020413729522542
0.0200567896408011
0.0196891895713133
0.0193088965310214
0.0189145196093534
0.0185032349484246
0.0180697943302812
0.0176075804040682
0.0171073256654275
0.0165569301925726
0.0159392714174447
0.0152265634381818
0.0143111658125683
0.0135593766497469
0.0135893603192567
0.0140608220603498
0.0147748034005191
0.0155997522576183
0.0165005313454798
0.0174891294078463
0.0185742964103487
0.0196909419558106
0.0208042235493703
0.0218863447896964
0.022898949526355
0.0237378921111841
0.0244223594574657
0.0250162684194055
0.0255791554720692
0.0261807780669076
0.0269619644436524
0.0281269156577009
0.029604125118269
0.031403892180401
0.0336381627996885
0.0362730335997179
0.0386876453574934
0.038543603754886
0.0359546504378254
0.0328567397197732
0.031861276607943
0.0363182998250692
0.0352736375032156
0.0316572180074414
0.0253396053499251
0.0166831577720834
0.01010296962384
0.00811678628977851
0.00696118861146161
0.00600207770879778
0.00536356945409817
0.00494341540492258
0.00470711161365383
0.00466351720372384
0.00482075484315212
0.00519005097976613
0.00574139466391786
0.00642652776858149
0.00719590778246328
0.00802710896906771
0.00889704559307991
0.00978816166107864
0.010701510705612
0.0116559182548496
0.0126549594687327
0.0137029489966152
0.0148406268839035
0.0161541206292911
0.0177718333044971
0.0197896279308292
0.0217196797135546
0.0233137369771447
0.024700379790798
0.0259296228393755
0.0270232589811274
0.0279973442888227
0.0288633670128092
0.0296296034789044
0.0303020999662921
0.0308862235815783
0.0313868804803585
0.0318088502705769
0.0321568659920518
0.0324356714259792
0.0326500054540079
0.0328045790696035
0.0329040333624828
0.0329529007231774
0.0329555656635437
0.0329162325483741
0.0328388989378981
0.0327273365471722
0.0325850776526229
0.0324154078229386
0.0322213637671927
0.0320057354444702
0.0317710750561576
0.0315196978016958
0.031253690088796
0.0309749223403095
0.0306850733739992
0.030385634293485
0.0300779152893224
0.0297630659185883
0.0294420804221959
0.0291158080428462
0.0287849639392359
0.0284501372087087
0.0281117976347876
0.0277703009719338
0.0274258926901777
0.0270787101762427
0.0267287827463385
0.026376029944627
0.026020256471261
0.0256611453628139
0.0252982451894538
0.024930956178905
0.0245585044161882
0.0241799175081086
0.0237939758814241
0.0233991878990741
0.0229935965529291
0.0225749470633062
0.0221411241606632
0.0216893395821795
0.0212146490203754
0.0207104741623364
0.0201676661470939
0.0195739501590258
0.0189121786484741
0.0181549301552249
0.0171972477503635
0.0163815391543293
0.0163286715044217
0.0167779416830992
0.017523008061253
0.0184240383489508
0.0194316388178227
0.0205488587383383
0.0217776946157275
0.023054345553624
0.0243368136546962
0.0255919033271848
0.0267751960131554
0.0277866982625876
0.028637006821443
0.029388408800235
0.0301056595207225
0.0308642773946654
0.0318084426294621
0.0331404454329848
0.0348108463451937
0.0368251618272536
0.0392762968548704
0.0421427698856171
0.0448551112209965
0.0451602052024041
0.042687940652684
0.0389262529540487
0.0369463630466995
0.0404670669500271
0.0392622811733238
0.0357459096655141
0.0293744875073376
0.0212708035493547
0.0140448465018315
0.0104907987868967
0.00890397456598273
0.0077739649751122
0.00698256175059765
0.00643555029627503
0.00610378120416458
0.00599828480959423
0.00613000265865038
0.00650735209717329
0.00708918080274766
0.00781433762300637
0.00862795306505584
0.0095063466553196
0.010427537509483
0.0113780037558354
0.0123637865676419
0.013405535377702
0.0145089493308287
0.0156834931333811
0.0169747400586551
0.018469413920507
0.0202830368015947
0.0224568419771609
0.024510194625811
0.0262231652477144
0.027719314389218
0.0290466926638945
0.0302286345634287
0.0312825395843894
0.0322202538900265
0.0330502311537173
0.0337789298274104
0.034412068164464
0.0349549164363098
0.0354126170459755
0.0357902713745942
0.03609299315164
0.0363258926817669
0.0364940499773134
0.0366024703706688
0.0366560422630952
0.036659495455718
0.0366173663433539
0.0365339694096739
0.0364133767055068
0.0362594033847925
0.0360755997521401
0.0358652490041012
0.0356313702659194
0.0353767273943951
0.0351038253012389
0.0348149279534154
0.0345120685674465
0.0341970713019144
0.0338715591358226
0.0335369622810782
0.0331945368829657
0.0328453732895376
0.0324904068360592
0.0321304290983753
0.031766096803303
0.0313979393336217
0.0310263646970446
0.0306516639270103
0.0302740138158285
0.0298934775654181
0.0295100034661318
0.0291234205773661
0.0287334320450749
0.0283396034906858
0.0279413487263605
0.0275379063625283
0.0271283137338179
0.0267113635005128
0.0262855683602718
0.0258490237705688
0.0253994186430361
0.0249342661873271
0.0244506775067445
0.0239439843735417
0.0234078141610664
0.0228333324556096
0.0222084632472072
0.0215165042881407
0.0207306085710761
0.0197512587016702
0.0188946846397104
0.0187687543078966
0.0191829822774536
0.0199358273613562
0.0208834561592863
0.0219655133246189
0.0231763188918856
0.0245111893252438
0.0259071836470809
0.0273173555273178
0.0287039535908385
0.0300177179807605
0.0311630152595664
0.0321448332334347
0.0330230529271991
0.0338651762790808
0.0347508441039052
0.0358256522619488
0.0372872295847912
0.0391049780746885
0.0412853184498238
0.0439059345064906
0.0469462974471389
0.0498615568816331
0.0505171633578954
0.0483069281361535
0.0443401762123654
0.0416583226193799
0.0443184399507355
0.042885782943266
0.0394397375734784
0.0330028650107386
0.0251286933891282
0.0179140856627187
0.0129075706109886
0.0107020983449745
0.00939146076765565
0.008469672456773
0.00781411926716225
0.00739894676878653
0.00723585482157111
0.00733834654320967
0.0077130745003254
0.00831115706017461
0.00906203545934457
0.00990749163824441
0.0108231791386149
0.0117884709118805
0.0127932223709138
0.0138470820031022
0.0149717626964273
0.0161746366254709
0.0174687388080235
0.0189015718922011
0.0205564661611522
0.0225341531823339
0.0248344448987685
0.0269911817096231
0.0288073238316132
0.0303994082914254
0.031813621963901
0.0330744116314137
0.0341997190255762
0.0352015800214181
0.0360886469530049
0.0368677137256359
0.0375447994612671
0.0381254916112598
0.0386152518080234
0.0390195084514327
0.0393437056416407
0.0395932868025251
0.0397736639399014
0.0398901707506305
0.0399480170303744
0.0399522445349016
0.0399076897532693
0.0398189536048375
0.0396903795259569
0.0395260381754631
0.0393297188435647
0.0391049270716178
0.0388548904320265
0.0385825595824581
0.0382906126096871
0.0379814732106647
0.037657320724566
0.0373201102279171
0.0369715833387297
0.0366132781647541
0.0362465470773955
0.0358725671614291
0.0354923516314227
0.0351067615102337
0.0347165153292835
0.0343221973574278
0.0339242642433006
0.0335230500655119
0.0331187696353547
0.0327115197939218
0.0323012785846622
0.0318879016986478
0.0314711161919473
0.0310505100288991
0.0306255179794301
0.0301954003823637
0.0297592166799006
0.0293157864181619
0.0288636486057065
0.0284009586301405
0.0279254287090091
0.027434425635259
0.0269249537164781
0.0263925948392414
0.0258312572836472
0.0252325301182895
0.0245847632729909
0.0238719443498181
0.0230679963998583
0.022079979893681
0.0211991073574759
0.0210118474820175
0.0213866601862538
0.0221338546931703
0.0231092130681185
0.0242443014663108
0.0255254213822673
0.0269414792851995
0.028429820786605
0.0299397839532591
0.0314296312135206
0.0328461232902726
0.0340978082865962
0.0351861920680044
0.0361688467434862
0.0371147382180003
0.0381065578257626
0.039290197069713
0.0408572643526961
0.0427921467324444
0.0451039906944559
0.0478573256001859
0.0510250845183486
0.0540721482144448
0.0549787586953478
0.0530368769157932
0.0491029309006953
0.0459969506179138
0.0478970350550943
0.0462333060100022
0.0428370139761317
0.0364196657315624
0.0284872041803434
0.0215596677471739
0.0154688958417045
0.0124433665454828
0.010903968623092
0.00986150947483255
0.00911057993873074
0.00862144182338308
0.00840467511613963
0.00847548965586192
0.00883972091179095
0.00944379782000493
0.0102105365889703
0.0110794872991647
0.0120258942581418
0.0130304631853869
0.0140857861438072
0.0152041540431604
0.0164079143856856
0.0177056393913482
0.0191125201165182
0.0206758374342816
0.0224732143288078
0.0245908444230713
0.0269976000323361
0.0292448909107061
0.031153753664688
0.0328328179433459
0.034326470040225
0.0356597952977304
0.036850864847401
0.0379118342382804
0.0388515483563779
0.0396770856560628
0.0403947327345028
0.0410103632609411
0.0415297298499195
0.0419585612610672
0.0423026065603015
0.0425676177003394
0.0427593148890649
0.0428833370617456
0.0429451930162572
0.0429502148060444
0.0429035181742938
0.0428099704855682
0.0426741674922905
0.042500417247429
0.0422927309104679
0.0420548211265197
0.0417901077176545
0.0415017134135148
0.0411924778001036
0.0408649721397631
0.0405215105851446
0.0401641693239584
0.0397947996038111
0.0394150391313717
0.0390263293968053
0.0386299278123063
0.0382269198492082
0.0378182312140664
0.0374046382845325
0.0369867770425874
0.0365651503871626
0.0361401338347965
0.0357119794231257
0.035280817667242
0.0348466573092406
0.0344093825459715
0.0339687473312169
0.0335243660624899
0.0330757000657483
0.0326220383700263
0.0321624717538345
0.0316958575982643
0.0312207771921045
0.0307354546370494
0.0302376681371983
0.0297247674045839
0.0291937104396722
0.0286403039264996
0.028058776786431
0.0274412026759696
0.0267764972524654
0.0260494650730065
0.0252349563847056
0.0242469205383517
0.0233538607315767
0.0231167581114158
0.0234522385032128
0.0241860766120176
0.0251765777060285
0.0263497067650144
0.0276846627797977
0.0291643444736581
0.0307259047486821
0.0323156790035242
0.0338883490363081
0.0353873690259827
0.0367252436541083
0.0379014686976152
0.0389716667861222
0.0400056085128269
0.0410882741637327
0.0423650352580896
0.0440207520454306
0.0460515011796897
0.0484691728530137
0.051325996059245
0.0545836092849298
0.0577095466260993
0.0587877391312212
0.0570790665730657
0.0532821869754773
0.0499498209560288
0.0512110485747455
0.049343584369728
0.0459864727848962
0.0396918279123975
0.0315245055185461
0.0249258357768134
0.0182263159917842
0.0142108995710215
0.0123601964981357
0.0111934203224399
0.0103547992756618
0.00979775494309824
0.00952950548177775
0.00956589483191416
0.00991265016076764
0.0105140969407282
0.0112887052421891
0.0121744991468015
0.0131463962172113
0.0141862758531445
0.0152888821310159
0.0164684270188232
0.017747583710418
0.0191356413061493
0.0206487481633115
0.0223324306480165
0.0242574083663409
0.0264965259966962
0.0289956926327167
0.0313248278546501
0.0333191429467879
0.035079038286195
0.0366470728287231
0.0380485705672914
0.0393015046182637
0.0404181113664686
0.041407410339197
0.0422767285086585
0.0430325966560845
0.0436811537346769
0.0442284248619349
0.0446804219547793
0.0450431828083568
0.045322752191578
0.0455251432745113
0.0456562853245844
0.0457219716046303
0.045727810290174
0.0456791826264116
0.0455812091198805
0.0454387250492703
0.0452562636267132
0.0450380462199786
0.0447879832345479
0.044509672620527
0.0442064016823381
0.0438811624926311
0.0435366653794338
0.0431753513672765
0.0427994108375003
0.0424107983046692
0.0420112451871097
0.0416022770316672
0.0411852270237229
0.0407612488939489
0.0403313296520034
0.0398963007303735
0.0394568476124377
0.0390135178174754
0.0385667272580557
0.0381167647717654
0.037663794753108
0.0372078575447265
0.0367488674703052
0.0362866078580447
0.0358207228791318
0.0353507049092261
0.0348758772414237
0.0343953692707541
0.0339080848856255
0.0334126598986718
0.0329073960087544
0.0323901629549583
0.0318583701374482
0.031308997920187
0.0307380693303581
0.0301401557364841
0.0295078485027639
0.0288307136242634
0.0280944344566917
0.0272749078323234
0.0262928531247836
0.0253965768074865
0.0251200361917425
0.0254186159835084
0.0261349331758513
0.0271319961571498
0.0283322621145108
0.0297088105545186
0.0312390193688804
0.0328595033609423
0.0345140248847457
0.0361539905746742
0.037720106945926
0.0391286448306126
0.0403781155140963
0.0415225980962418
0.0426323325729481
0.0437939958137514
0.0451517605112773
0.0468833236317992
0.048993812372394
0.0514970444452639
0.054433153678422
0.0577496835325078
0.0609144282524751
0.0621039843089949
0.0605860481234148
0.0569644449872538
0.0535333685764783
0.0542723176317005
0.0522384011412039
0.0489184758706241
0.0428278989704142
0.0343762253705949
0.0279914913642732
0.0211599053356536
0.0160788867610025
0.0138038109013477
0.0124942565587659
0.0115703714953183
0.0109485385545916
0.0106293600009322
0.0106281031665843
0.010950791954554
0.011541782987757
0.0123171424600721
0.0132138958835907
0.014206627093539
0.0152781600379552
0.0164248659351709
0.0176623042217222
0.0190132090324813
0.0204871229981674
0.0221001772024126
0.0238951011777628
0.0259352362101042
0.0282815657721967
0.0308630008901656
0.0332678235745016
0.0353423630051468
0.0371787506460537
0.0388176270775401
0.0402842312795562
0.0415963010966159
0.0427661223782899
0.0438028663647116
0.0447140814855641
0.0455065259457497
0.0461865898309846
0.0467605589999569
0.0472347178960483
0.0476153831927076
0.0479088829415436
0.0481215139683919
0.0482594866474812
0.0483288695737251
0.0483355379942594
0.0482851297401818
0.0481830097012924
0.0480342441463644
0.0478435831811849
0.047615451197246
0.0473539479758437
0.0470628411317972
0.0467455771608173
0.0464052940914111
0.0460448352615154
0.0456667628717958
0.0452733765086166
0.0448667293571315
0.0444486422729481
0.0440207211673434
0.0435843716836795
0.0431408129020639
0.0426910906805269
0.0422360894960437
0.0417765427651714
0.0413130415072375
0.0408460413682766
0.0403758678060305
0.039902719416062
0.0394266690172381
0.0389476625157323
0.038465514754598
0.0379799025245043
0.0374903530154836
0.0369962284412856
0.0364967028076267
0.0359907336750813
0.0354770211680877
0.0349539530192528
0.034419507448687
0.0338712011058386
0.0333060960552385
0.0327204367296665
0.0321091503187371
0.0314653622012827
0.0307793369803479
0.0300376603955414
0.0292173619986506
0.028245595263633
0.0273528266184436
0.0270459460496992
0.0273112348450014
0.0280081407398033
0.0290058840691111
0.0302251449148868
0.0316338586450961
0.0332044176508156
0.0348726759055087
0.0365800952142979
0.0382750515012037
0.0398959865858674
0.041362795278147
0.042673731729238
0.0438817087714408
0.045057263361709
0.0462882648174543
0.0477170865725853
0.0495140109171435
0.0516911078986257
0.0542629498900091
0.0572575642955586
0.0606071137833522
0.063779953305835
0.0650358165308153
0.0636693223498336
0.060229909116838
0.0567796158318233
0.0570969615901666
0.0549339342406771
0.0516551167468619
0.0458160373777746
0.0371377355753069
0.0307813467108163
0.0241852595056088
0.0181112109747007
0.015276406836914
0.013788328779813
0.0127759830281118
0.0120898834427927
0.011718922710846
0.011676374353066
0.011968629438932
0.0125417693371302
0.0133111638990052
0.0142133130907247
0.0152224246037684
0.0163220068617002
0.0175095873755496
0.0188015928660503
0.0202205718479306
0.0217758991572994
0.0234829240661139
0.0253809127605262
0.0275257986791509
0.0299681783882533
0.0326243943248695
0.0351004152635324
0.03725132511772
0.0391610897533069
0.0408683038502795
0.0423978559125914
0.0437671545838906
0.044988502745443
0.0460711982712075
0.0470229895245466
0.0478508498331699
0.0485614111162781
0.0491612131135523
0.0496568070099627
0.0500547832235548
0.0503617481110324
0.0505842772024565
0.0507288568993482
0.0508018259152044
0.0508093212124626
0.0507572317580417
0.0506511613046874
0.0504964015921083
0.0502979141496918
0.0500603227245847
0.0497879076187821
0.0494846029661434
0.0491540098371754
0.0487994075675134
0.0484237681488475
0.0480297708251285
0.0476198207422885
0.0471960663879427
0.0467604149051374
0.0463145498340807
0.04585994682433
0.045397888155168
0.0449294767261503
0.0444556485953702
0.0439771839957816
0.0434947166850412
0.0430087416482097
0.0425196209593895
0.042027587822235
0.0415327483940175
0.0410350815086148
0.0405344354353817
0.0400305220904076
0.0395229067404187
0.039010994540533
0.0384940092100714
0.0379709680909592
0.0374406437090731
0.036901517609797
0.0363516887644623
0.0357888117232884
0.0352100773379392
0.0346119637662239
0.0339897634817939
0.0333371418583604
0.0326450857329086
0.03190108354244
0.0310833549378372
0.0301250521127276
0.0292408862108317
0.0289114841337846
0.0291475971487128
0.0298246827778739
0.030819111901542
0.0320511807653711
0.0334846044200129
0.0350873454532582
0.036794373970229
0.038545036023997
0.0402848847876407
0.0419505264395991
0.0434653824145398
0.0448279772390781
0.0460903826231905
0.0473233329572881
0.0486154269945796
0.0501066965072328
0.0519598407131812
0.0541921580645201
0.0568177107219679
0.059852512953354
0.0632132942510679
0.0663706551101139
0.0676590923400211
0.0664105164939921
0.0631457866423689
0.0597246362992452
0.0597030432579322
0.0574443330186508
0.0542137338823789
0.0486441085986452
0.0398660821990667
0.0333458106458527
0.0271825223771222
0.0203585794488461
0.0168207335631218
0.0150981141955597
0.0139873475778134
0.0132349323919679
0.0128100446508955
0.0127221567043666
0.0129777437207298
0.0135258664873149
0.0142827203848515
0.0151847649870699
0.0162057917498946
0.0173297269677505
0.0185548303889439
0.0198979777845696
0.0213812961511426
0.0230136251943427
0.0248089531867393
0.0268026952645299
0.0290436063640483
0.0315732191755939
0.0342985864275956
0.0368424536265962
0.0390668404735189
0.0410477237771823
0.0428215078850211
0.0444125061434887
0.0458377235689776
0.047109443671768
0.0482370648434636
0.0492285172838699
0.0500909803147087
0.0508313220228978
0.0514563329265876
0.0519728289223304
0.0523876726989609
0.0527077474633371
0.0529399058443123
0.053090908351793
0.0531673615667037
0.0531756615789894
0.0531219456185228
0.0530120531687109
0.0528514981309759
0.0526454508200708
0.0523987302739879
0.0521157922208887
0.0518007354211781
0.0514573120829134
0.0510889395394028
0.0506987152917246
0.0502894326092086
0.0498635995099692
0.0494234572907156
0.0489709970351622
0.0485079778618827
0.0480359435919606
0.0475562380980472
0.047070019979999
0.0465782758074726
0.0460818318389698
0.0455813640687708
0.0450774066221932
0.044570358315966
0.0440604874341282
0.0435479343290865
0.0430327120323439
0.0425147039905656
0.0419936595098524
0.0414691848373909
0.0409407316319759
0.0404075777862598
0.0398688057581302
0.0393232673389607
0.0387695449523796
0.0382058678254413
0.0376300489062823