/*--------------------------------*- C++ -*----------------------------------*\
  =========                 |
  \\      /  F ield         | OpenFOAM: The Open Source CFD Toolbox
   \\    /   O peration     | Website:  https://openfoam.org
    \\  /    A nd           | Version:  7
     \\/     M anipulation  |
\*---------------------------------------------------------------------------*/
FoamFile
{
    version     2.0;
    format      ascii;
    class       volScalarField;
    location    "8000";
    object      kDeficit;
}
// * * * * * * * * * * * * * * * * * * * * * * * * * * * * * * * * * * * * * //

dimensions      [0 2 -3 0 0 0 0];

internalField   nonuniform List<scalar> 
15600
(
0.0272413504141195
0.0248284372786158
0.014610842412688
0.00612136856046568
0.00173160778267394
0.00126835531305187
0.00133978230748225
0.000994405662372235
0.000741422128120313
0.000598486310982936
0.000502266200404476
0.000447242813410946
0.000427979053958543
0.00043918436825634
0.000482007040911967
0.000556603531290721
0.00066231186839739
0.000790564414859128
0.000940062749288712
0.0011077606000763
0.0012857257737803
0.00146449835005521
0.00165573271496618
0.0018673659074955
0.00209092547067104
0.00232554918223976
0.00257086236916975
0.00283259058303442
0.00354900191591244
0.00452519777107079
0.00535909705914279
0.00608819688310749
0.00675431483652517
0.00736581153514894
0.00791913291769003
0.0084088637589333
0.00884398512382657
0.00922484082683993
0.00955275957255764
0.00982933198000912
0.010056622229837
0.010237122351132
0.0103737181923533
0.0104695717843093
0.0105280357589714
0.0105525428564664
0.0105465255574725
0.0105133372097518
0.0104561965770778
0.0103781424143212
0.0102820053548061
0.0101703879719853
0.0100456575937187
0.00990994460729779
0.00976514907594695
0.00961294917160524
0.00945481787388696
0.00929202921331163
0.00912565621029515
0.00895664823284674
0.00878577931483843
0.00861368870129811
0.00844092582457928
0.00826790606390962
0.00809494553061248
0.00792227803919165
0.00775005898447999
0.00757837243129035
0.00740723685879885
0.00723660901370899
0.00706638807527329
0.00689641547855234
0.00672647813792378
0.00655630215962925
0.00638555756958668
0.00621384027019606
0.00604068518917146
0.00586552233144983
0.00568771657929092
0.00550646597884789
0.00532099056188242
0.00512917553857123
0.00493205209266619
0.00473010947155009
0.00452098352967842
0.00430062233026693
0.00406653191495687
0.0038130174311696
0.0035372954724503
0.00323094045591295
0.00288293598482492
0.00244386574452456
0.00218132483734938
0.00239527153572204
0.00269012552592749
0.00309572750205767
0.00355878536894026
0.00410229801126599
0.00476196009135202
0.00557244305522851
0.00644802702398331
0.00738914992823247
0.00837265463858219
0.00936929172052426
0.0102014763723072
0.0109997209858507
0.0118641105201777
0.0128508402099266
0.0140764564433134
0.0158275196283917
0.0185829039167972
0.0220175742086265
0.0263383761561823
0.032314728941919
0.0396265186891084
0.0446498990159875
0.037169434485059
0.0288321499229703
0.0234685817566935
0.0256056862669388
0.0987962780538833
0.0906083741554184
0.0608838395036091
0.0259501252313528
0.0068596569927926
0.00463391152428972
0.00488148067154104
0.00365632536495506
0.00272593348896878
0.00219590418170623
0.00183992284365744
0.00163613617851189
0.00156288437867391
0.00160257122525205
0.00175970883187738
0.00203488744608973
0.00242317560584549
0.00289412049263671
0.00343902809950973
0.00403926323245784
0.00466006282745668
0.00527514304274564
0.00591746846436066
0.00659827797581132
0.00729895745721531
0.00803676715113358
0.00889622620419363
0.0102594083517257
0.0127035539012308
0.0152960456479598
0.0173765127301874
0.0191553330960066
0.0207413305545009
0.0221730365414288
0.0234583663694187
0.0245850220338241
0.0255655238468829
0.0264078774254395
0.0271209014615855
0.0277127867706915
0.0281917495965295
0.028566030269429
0.0288439336563834
0.0290337148213926
0.0291435082087887
0.0291812134214167
0.0291544188962662
0.0290703231459092
0.0289356845105461
0.0287567816298027
0.0285393946323974
0.0282887949864839
0.0280097510000234
0.0277065394699832
0.0273829672879949
0.027042395379916
0.0266877715509114
0.0263216490827347
0.0259461725448233
0.0255632359354694
0.0251744065179672
0.0247809537341999
0.0243839450586765
0.0239841941944601
0.0235823022488516
0.0231786882480054
0.022773598694471
0.0223671188388726
0.0219591814296055
0.0215495715868773
0.0211379310369693
0.0207237544346556
0.0203063892819112
0.0198850193891092
0.0194586630174479
0.019026132684473
0.0185860402933971
0.0181367072745421
0.0176762017188302
0.0172021398986959
0.0167119791857621
0.0162018946615069
0.0156784979758573
0.0151404097470836
0.0145773573113237
0.0139786256728717
0.0133345024467743
0.0126305042628898
0.0118517849165793
0.0109774829569125
0.00996446991820272
0.00866720779911093
0.00771624952019299
0.00808691754909992
0.00899339004234677
0.0102673806537523
0.0117655570688534
0.013550104950756
0.01573271851026
0.0184107784237222
0.0213636710159698
0.0245708194215641
0.0279702983184993
0.0314676252640008
0.034578111335986
0.0376221259484187
0.0409163882474581
0.0446694534679688
0.0492700807650146
0.0556563188350144
0.0653489404945039
0.0774714125996552
0.0925264194769779
0.112347778842791
0.135630640029107
0.153469085603146
0.145050283614809
0.123647571485153
0.100927887020418
0.0977783807753042
0.138591488515364
0.123454273409624
0.0968179898112155
0.0536094646567388
0.0144254741749318
0.00836362476909361
0.0085651124459998
0.00659430707185433
0.00498814814066102
0.00402710838876799
0.00337526648169477
0.0029910410365395
0.00284167001919497
0.00289335557372216
0.00314667177043236
0.00358805393269888
0.0041856517785652
0.00486364755509156
0.00557811841829277
0.00627743181514659
0.00691021726022445
0.00745991653467821
0.00798811350097624
0.00854080729292624
0.00914271267351491
0.00986336368275425
0.0108213505129232
0.0121123753505106
0.0140347132944377
0.0160283051738904
0.0176798004086733
0.0191215471812661
0.0204020126204566
0.0215251536877168
0.0224879804855236
0.0233477313267689
0.0241045675051738
0.0247643420810308
0.0253323998070663
0.0258137780232249
0.0262135595651421
0.0265368908587942
0.0267890083648442
0.0269751873296365
0.027100693977649
0.0271707204394796
0.0271903294174836
0.0271644011833659
0.0270975920350175
0.0269943010803016
0.0268586474939232
0.0266944550797165
0.0265052454595501
0.0262942373791849
0.026064351716929
0.0258182208399267
0.0255581993594723
0.025286378474867
0.0250045834289347
0.0247144228826347
0.0244172932559779
0.0241143797898568
0.023806688529524
0.023495051520736
0.0231801373066088
0.0228624662606662
0.0225424201778043
0.0222202498241939
0.0218960807805682
0.021569917301489
0.0212416442790597
0.0209110263293866
0.0205777048517976
0.0202411906913763
0.0199008548356027
0.0195559114081057
0.0192053995489658
0.0188481504950754
0.0184827553896184
0.0181075062025266
0.0177203483492496
0.0173194660888801
0.0168927651942638
0.0164428837072034
0.0159699807240075
0.0154665825809616
0.0149239221888781
0.0143292521392643
0.0136677709766662
0.012914426561935
0.0120433664598569
0.010912717869819
0.0100403154570776
0.010245454973751
0.0109699137074082
0.0121542741684389
0.0136959525311429
0.0156102775685202
0.0179842305398272
0.0208823725462524
0.0241922703945887
0.0278519638727115
0.0318142132482645
0.0359993742391322
0.040169501470118
0.0444863606534783
0.0492357539548079
0.0546845717823669
0.0611959779453455
0.0694919901857189
0.0805082662516762
0.0935498774022992
0.10810626296081
0.123597675204545
0.138121114458655
0.148281656046567
0.148557436974855
0.148273307698926
0.148089176821952
0.14838872561423
0.119563313628638
0.106815571534227
0.0933250282176344
0.0713348853031741
0.0268313574833089
0.0116268153740823
0.0104360998568508
0.00837891661951197
0.00655475208668257
0.00533919443979577
0.004482409010803
0.00395200502845529
0.00371372230944085
0.00371928175121598
0.00394509941573989
0.00434066446761695
0.00483503118970833
0.00533906003525448
0.00581450873798107
0.00623702385751548
0.00659928615234461
0.00692390037060533
0.007270649276232
0.00768096213037918
0.00818850074585786
0.00885585603775153
0.00975590984212905
0.0109149575644919
0.0123990929427966
0.0138731323269717
0.0151222343201066
0.0162246886841649
0.0172017709703216
0.0180476210885599
0.0187927143143283
0.0194620151687026
0.020054922338425
0.0205752876246296
0.0210264689473672
0.0214118131735562
0.0217347831734055
0.0219989649538253
0.0222080603082088
0.0223658474925138
0.0224761362394024
0.022542718528674
0.0225693226327056
0.0225595718017041
0.0225169496895744
0.022444772870309
0.0223461704133712
0.0222240696331827
0.0220811876658784
0.0219200283135137
0.0217428828005127
0.0215518344206703
0.021348766053963
0.0211353655940978
0.0209131292863228
0.0206833842626938
0.020447300160346
0.0202058927625558
0.0199600361014929
0.019710475624101
0.0194578335246071
0.0192026182346134
0.0189452325624495
0.0186859799540928
0.0184250695131287
0.0181626199098119
0.0178986616747246
0.0176331383744292
0.0173659053621228
0.0170967276954443
0.0168252737999009
0.0165511094939688
0.0162736831924843
0.0159923157390596
0.0157061687502031
0.0154142337256434
0.015115232842667
0.0148082440120965
0.0144871208117436
0.01414531834157
0.0137868788970668
0.0134089162043571
0.0130059736729592
0.0125703709794828
0.0120920922309173
0.0115552453655475
0.0109437154842859
0.0101721285736163
0.00952464441107377
0.00950281830101712
0.0098964759960651
0.0106944725485399
0.0118354237584416
0.0133010111364293
0.0151291143913191
0.0173466741514987
0.0199079884200584
0.0227603136936329
0.025868034035073
0.0291788190578899
0.0326125440658053
0.0362309120073763
0.0401990976567426
0.0447119562007015
0.0500046286435344
0.0564345896258412
0.0642989008708433
0.0732018903447637
0.0825260012944622
0.0913590089418016
0.0988150721681777
0.104836933035799
0.10863346265398
0.11220186993034
0.120394768683555
0.125807817760697
0.0959287234978992
0.0876108813590309
0.0807761848412463
0.0760723779784773
0.0415226411022384
0.0153933327052736
0.010577797154782
0.00854809120757736
0.00690055039115502
0.00567962531142036
0.0047789121081392
0.0041995300455485
0.0039095478115025
0.00385977269882535
0.00400996995090881
0.00429545894249445
0.00464319216404112
0.00498785208808663
0.00530777094135876
0.00559495973998511
0.00585694369046861
0.00612030556821093
0.00642687156140158
0.00680833909141748
0.00729922998051675
0.0079517456894164
0.00881417246295399
0.00988857259785418
0.0111093973456482
0.0122551191536035
0.0132476802254375
0.0141332112046836
0.0149191813106258
0.015609309204157
0.0162255966755287
0.0167800883414101
0.0172727600430024
0.0177064282592349
0.0180835490855433
0.0184066676420986
0.0186784546649164
0.0189017139111231
0.0190793628266569
0.0192144005472341
0.0193098674509993
0.0193688049375059
0.0193942164051927
0.0193890330612036
0.0193560845822746
0.0192980757685471
0.0192175687043257
0.0191169701497082
0.0189985234164707
0.0188643047361803
0.0187162226837847
0.0185560215890357
0.0183852873468792
0.0182054457923339
0.0180177740375528
0.0178234096643123
0.0176233631107006
0.0174185218801572
0.017209657070956
0.0169974357933644
0.0167824255960286
0.0165651014873938
0.0163458527546301
0.0161249884344562
0.0159027418189717
0.0156792742134738
0.0154546774417571
0.0152289757797967
0.0150021259054569
0.0147740168460816
0.014544466222341
0.0143132182544573
0.0140799336593475
0.0138441866351246
0.0136054416595369
0.0133630550209039
0.0131161893581103
0.0128642560800038
0.0126040052034713
0.0123301486632718
0.0120438141375071
0.0117443925608772
0.0114287961131946
0.0110925187257153
0.010729099905244
0.01032934296805
0.00988234137308912
0.00934059501925726
0.00884079105170287
0.00869581728541599
0.00889379174113781
0.00943431476658101
0.0102788805489955
0.0114005596824134
0.0128102591503672
0.014514969973131
0.016490844307271
0.0186989268034261
0.0211102870808888
0.0236876369917321
0.0264031622528235
0.0292850407397637
0.0324250408041347
0.0359494914819191
0.0400083022842405
0.0447854940210658
0.0503549768555552
0.0564939706536764
0.0627825914995723
0.0685658496992079
0.0734201148208145
0.0778602539274369
0.082596096184576
0.086615436881566
0.0933467548882695
0.0983299665548314
0.0783001029242575
0.0730778395535835
0.0690567040140826
0.0730862470954739
0.0527970345502996
0.020697571153467
0.0105676547423597
0.00807022214342026
0.00659402163894769
0.00546457842846368
0.00461622295967468
0.0040637006325324
0.00377640492654658
0.00371017756074351
0.00381949274715191
0.0040395840705387
0.00430548005052578
0.00457007544944641
0.00481960922453281
0.00505233381011914
0.00528010125279959
0.00552742026662646
0.00582536691488943
0.00620074667066157
0.00668645476756019
0.00732501634501634
0.00814767671703149
0.00913467070218867
0.0101704079487329
0.0111096018676221
0.0119391390448978
0.0126851772114368
0.01335025941488
0.0139416304456612
0.0144733031128942
0.0149518761320909
0.0153777369821636
0.0157530925721578
0.0160799069088842
0.016360268444631
0.0165963886500503
0.016790610347336
0.0169453838790339
0.0170632396519691
0.0171467514855678
0.0171985019005895
0.0172210478558368
0.0172168910782729
0.0171884523350836
0.01713805091291
0.0170678887747474
0.0169800392821052
0.0168764396540677
0.016758887358277
0.0166290390681358
0.0164884150593468
0.0163383985574115
0.0161802386032729
0.0160150599593588
0.0158438677177477
0.0156675585843947
0.0154869253973803
0.0153026617343561
0.015115372565566
0.0149255785096271
0.0147337216219134
0.0145401712729546
0.0143452290824569
0.0141491330803819
0.0139520613044797
0.0137541344253402
0.0135554180096207
0.0133559232511566
0.0131556078874931
0.0129543742430416
0.0127520690493468
0.0125484769239748
0.0123433202088345
0.0121362429929985
0.0119268161659677
0.0117144731957263
0.0114988077564456
0.011277979634031
0.0110484325666778
0.0108098188989411
0.0105621692742791
0.0103038151555676
0.0100321634510834
0.00974315604406094
0.00943157761365013
0.00909017907501709
0.0086941143107744
0.00830364202516279
0.00811427660922806
0.0081988419474515
0.00857506783377107
0.00922002829536887
0.0101075304593151
0.0112351070720333
0.0125989975244351
0.0141827121474529
0.0159569239432666
0.0178973714025579
0.019975456890145
0.0221828174491644
0.0245371732816216
0.0270932152999093
0.0299346760220218
0.0331628142228305
0.036881442247481
0.0410853467625029
0.0456329876941302
0.0502525114231835
0.0544992301700294
0.0581360400797266
0.0616764212201457
0.0662153619543289
0.070422852021857
0.0756372117554143
0.0792100817936412
0.0659099051663681
0.0624723910479875
0.0597488668426188
0.0671238812550192
0.0585480017664264
0.0271649753244662
0.0111863048896633
0.00765452190732261
0.00620509879994178
0.00515812746143816
0.00437540258017482
0.00386640561495112
0.00359895332084121
0.00353229102065179
0.00362000795374591
0.00380113751299062
0.00401905957767107
0.00423825191137298
0.00444955599856061
0.00465460739233447
0.00486676265266689
0.00510801545335652
0.00540324653387093
0.00577612734501085
0.00625639829758959
0.00687765031931686
0.00765757536090957
0.00856077095484937
0.00946098247361462
0.0102637885412558
0.010983724310003
0.0116349567344455
0.0122184097440636
0.0127417257275746
0.0132138549719214
0.0136388473668932
0.0140173097387592
0.0143510531326333
0.0146417348046235
0.0148911496341746
0.0151012121228554
0.0152739647567131
0.0154115523883927
0.0155161974901135
0.0155901662694642
0.0156357374055523
0.0156551710025534
0.015650681855263
0.015624416188758
0.0155784330670914
0.0155146900052259
0.0154350326899756
0.015341187988058
0.0152347604972307
0.0151172319036741
0.0149899646091584
0.0148541978907232
0.0147110552696185
0.0145615511494842
0.0144065941534055
0.0142469970931488
0.0140834816107119
0.0139166821210202
0.0137471548892794
0.0135753822661643
0.0134017778010102
0.0132266914769038
0.013050414272474
0.012873182092415
0.0126951792437282
0.0125165411451488
0.0123373567713934
0.0121576699263391
0.0119774807216407
0.0117967448951416
0.0116153746484769
0.0114332347414883
0.0112501437721696
0.0110658636495267
0.0108801057054684
0.0106924849737923
0.0105027205079185
0.0103097233249183
0.0101111890582326
0.00990625562367422
0.00969512049126092
0.00947694924277904
0.00925036157252474
0.00901295549129529
0.00876199343850527
0.00849282786508949
0.00819439738255006
0.0078882680413233
0.00769374635512115
0.00771265317312989
0.00797990328898003
0.00848550238121138
0.00920744520074839
0.010136951174319
0.0112643355836901
0.0125756663780877
0.0140478429492709
0.0156600660154848
0.0173893672361238
0.0192355790457635
0.02121317911825
0.0233577655279236
0.0257274413483702
0.0283945284406712
0.031421834842186
0.0347739177405021
0.0383500748047518
0.0419695359285943
0.0453226574685669
0.0482569156289121
0.051195003595255
0.0552144969053768
0.0593202398005674
0.0637450102390623
0.0663822254873251
0.0569806461332088
0.0545661570037911
0.0525665364167114
0.060529197185892
0.0609415301413719
0.0338479912343388
0.0126319934017679
0.00749927476798043
0.0059143286499417
0.00491202763355386
0.00417943836360446
0.00370614928857672
0.00345633377115342
0.00339029770876196
0.00346203465626514
0.00361506523321657
0.00379980092533513
0.00398833896526795
0.00417462702848343
0.00436236560261499
0.00456523184916426
0.00480294647396699
0.00509642964538049
0.0054667479399376
0.00593983370902117
0.00654133523483418
0.00727835031110167
0.00810655721803084
0.00890536329093299
0.00961353046745429
0.0102559708906431
0.0108396368335957
0.0113650721974541
0.0118390213915121
0.0122674021221826
0.0126529536328461
0.0129963843375575
0.0132992315010427
0.0135629443767397
0.0137891150789397
0.0139794534478814
0.0141357946438493
0.0142600727857531
0.0143542977062973
0.0144205229690054
0.0144608167524056
0.0144772329566061
0.0144717863892588
0.0144464311897318
0.0144030435611056
0.0143434084319646
0.0142692099182199
0.0141820247907231
0.0140833192139945
0.0139744494120208
0.0138566612130107
0.0137310895811551
0.0135987654765191
0.0134606210406228
0.0133174926156788
0.0131701295390476
0.0130191988285917
0.0128652889611693
0.0127089177282073
0.0125505364835157
0.0123905348710017
0.0122292456259484
0.0120669488795309
0.011903875938445
0.0117402126819482
0.0115761023434995
0.0114116480792557
0.0112469146410629
0.0110819302332773
0.0109166867675063
0.0107511413672194
0.010585214395941
0.0104187916273868
0.0102517177832657
0.0100838030076559
0.00991479164204692
0.00974449889902073
0.00957227295855673
0.00939662617934935
0.00921669723506195
0.00903266781417586
0.00884423071436192
0.00865081387026798
0.00845118980433179
0.00824425029549826
0.00802725984491727
0.00779763982989829
0.00755750084322674
0.00737590359721309
0.00735806058704414
0.00755096017435372
0.00795553020844014
0.00855519595971963
0.00933870725978977
0.010293242899778
0.0114057585849738
0.0126572063177525
0.0140294064368683
0.0155033420863771
0.0170825289410765
0.0187804639112994
0.0206224381886293
0.0226507308236145
0.0249193879761076
0.0274681770743145
0.030250373833511
0.0331883617730599
0.0361574412397019
0.0389336345734268
0.0414059846323146
0.0439067526340795
0.0473806622508864
0.0511925402663844
0.055146027013115
0.0572996397506219
0.0502582788215272
0.0484714686635749
0.0469731209661534
0.054225358408752
0.0609499261466682
0.0401096041374777
0.0150203852750437
0.00765131615084852
0.00575104512854147
0.00474815105980279
0.0040454724492783
0.00359548187303993
0.00335658510467045
0.00328833158837256
0.00334528290704073
0.00347519487672426
0.00363416969715968
0.00379952609582557
0.00396739560905235
0.00414272578097916
0.00433893130562053
0.00457377095919264
0.00486534608807444
0.00523230238425067
0.00569664382216515
0.00627720990940184
0.00697319085171853
0.00773650117749698
0.0084581097377647
0.00909808721373827
0.00968374188047274
0.010217700062185
0.0107003546438237
0.0111373417036849
0.0115326928779467
0.0118884160835468
0.0122052552837745
0.0124845500892334
0.0127276010158058
0.012935854181487
0.0131108733183543
0.013254346049178
0.0133680571422373
0.01345386594356
0.0135136756103759
0.0135494052732763
0.0135629625432125
0.0135562199330185
0.0135309944174649
0.0134890310669196
0.0134319904637663
0.0133614397151443
0.0132788462926131
0.0131855753174842
0.0130828902727379
0.0129719500336554
0.0128538121887119
0.0127294380485587
0.0125996973223902
0.0124653711730019
0.0123271600652834
0.0121856884749966
0.0120415087133076
0.0118951078820908
0.0117469121458439
0.0115972912404193
0.0114465629882553
0.0112949974299115
0.0111428205106765
0.0109902174347641
0.0108373355166379
0.0106842868513437
0.0105311502979393
0.0103779736202084
0.0102247744520222
0.0100715422914436
0.00991823798838809
0.00976479655644885
0.00961112377134286
0.00945710285242691
0.00930257423034901
0.00914743070798912
0.00899129437149647
0.008833222795073
0.00867252575163766
0.00850936956179625
0.00834378855783127
0.00817576783937635
0.00800493103140876
0.00783128421213854
0.00765353963441454
0.00747431019320112
0.00728625405703126
0.00712525397441901
0.00708872476474069
0.0072302870010057
0.00755966476316813
0.00806593906120525
0.00873757974734247
0.00956036508253919
0.010521604164412
0.0116049610789023
0.0127942715630746
0.0140734462991481
0.0154476594596462
0.0169300898938041
0.0185402113757573
0.0203102237016715
0.0222820379504447
0.0244815276534121
0.0268589554595441
0.029351468775955
0.0318699182750388
0.0342455013656377
0.0363878011226825
0.0385533404175359
0.0415360004918077
0.0449762507732449
0.0485609434948696
0.0504707618844452
0.0449816432182423
0.0436146722449912
0.0425180173596831
0.0485703767770795
0.0593319152378863
0.0453033388218665
0.0184172134010588
0.00814945059188943
0.0057165344107577
0.00466034701844138
0.0039673570241173
0.00352864560939138
0.00329370235121684
0.00321985919589196
0.00326194905091256
0.00337140371575968
0.00350888783288727
0.0036554028942831
0.00380861898382393
0.00397418381018034
0.00416495330706483
0.00439699223669363
0.00468620889091072
0.00504893957377296
0.00550342985089114
0.00606285839461949
0.00672080012263618
0.00742884894890878
0.00809088961026488
0.00868042641736181
0.00922349088124758
0.00972010558279362
0.0101705079976694
0.0105793074311593
0.0109493214111196
0.0112821174792585
0.0115784389715612
0.0118394783038534
0.0120664261204283
0.0122606211796876
0.0124235213902809
0.0125567083950705
0.0126618604840429
0.0127407301079982
0.0127951137819255
0.0128268249084395
0.0128376671325232
0.0128294115137597
0.012803776825287
0.0127624137857738
0.0127068930140262
0.0126386964540314
0.0125592115088681
0.0124697294603075
0.0123714436599591
0.0122654485314301
0.0121527434344197
0.0120342367807802
0.0119107504588142
0.0117830230722316
0.0116517170694855
0.0115174234830749
0.0113806658908488
0.0112419067293395
0.0111015516007842
0.0109599536668725
0.0108174179845244
0.0106742055287636
0.0105305368302161
0.0103865953165575
0.0102425302353497
0.0100984594180677
0.0099544715153127
0.00981062836804109
0.00966696652814586
0.00952349964097561
0.00938021905717281
0.00923709715794139
0.00909408628921147
0.00895112565923418
0.00880812934824056
0.00866505435185886
0.00852170519028157
0.00837751431203077
0.00823200070577378
0.00808534981511924
0.00793782805588369
0.0077898141428614
0.00764155696825746
0.00749384308311457
0.00734650212815471
0.00720524187197777
0.00705856866748859
0.00692066013572384
0.00687689843137178
0.00698309794098292
0.007255604208726
0.00768883321718751
0.00827222961796798
0.00899130208231608
0.00983362080984518
0.0107847372637334
0.011830068020886
0.0129557776082527
0.0141677239211615
0.0154789056658528
0.0169053861353598
0.018472768670825
0.0202145886203992
0.022147933680123
0.0242239980805142
0.0263904912990197
0.0285814060516405
0.0306637907341402
0.0325562609813528
0.0344539812185374
0.0370150453730549
0.0400704937708614
0.0433196163136225
0.0450883325670079
0.040695567954187
0.0396312321377185
0.0388748980417669
0.0436487268057579
0.0566651008387085
0.049103363984578
0.0227035772449048
0.00905595090595209
0.00581662332965124
0.00464171948152806
0.00393742024362331
0.00349875857677139
0.00326123216545664
0.00317853583204654
0.00320523205139079
0.00329574840642851
0.0034143802981097
0.00354476383118917
0.00368562781411686
0.00384294135750529
0.00402885028023905
0.00425793514599583
0.00454428334087052
0.00490204002333145
0.00534601147724657
0.00588479287090221
0.00650819155088244
0.00716958650121923
0.00778522049836065
0.00833681950561944
0.00884751922714915
0.00931576307525662
0.00974158716419172
0.0101287178981208
0.0104791644859957
0.010794208165722
0.0110745720951712
0.0113213364695924
0.0115356093588474
0.0117186502415544
0.0118718407553035
0.0119966873064952
0.012094793518607
0.0121678373692206
0.0122175413138034
0.0122456453088477
0.0122538805921507
0.0122439472470715
0.0122174949436869
0.0121761075435271
0.0121212914318832
0.0120544672539123
0.011976964541785
0.0118900204299481
0.0117947758909157
0.011692277706487
0.0115834814410694
0.0114692553399283
0.0113503846307501
0.011227575011099
0.0111014592562933
0.0109726020092883
0.0108415039192158
0.0107086075138952
0.0105743015565694
0.0104389253947265
0.0103027731955167
0.0101660979107494
0.0100291149000266
0.00989200528442759
0.0097549189448479
0.00961797737799281
0.0094812761436883
0.00934488743394904
0.00920886203870067
0.00907323205314628
0.00893801237189687
0.00880320445154811
0.00866879705156898
0.0085347733950529
0.00840110533741912
0.00826780368253413
0.00813480077022653
0.00800179349646837
0.00786850099896477
0.00773515622498384
0.00760219270382056
0.00747027252940944
0.0073401071761194
0.00721303599719686
0.00708975831616651
0.00697772154515199
0.00686410232545572
0.00674917763134219
0.00670542764687695
0.00678766281196873
0.00701679959158178
0.00739196346245945
0.00790425402615604
0.00853965801365657
0.00928608479891814
0.0101304655273612
0.0110594851176256
0.0120610950668061
0.013141350850021
0.014313048560713
0.0155901870851509
0.0169939563203879
0.0185519373361519
0.0202755196141954
0.0221188426348774
0.0240378686184832
0.0259818389333865
0.027840902759202
0.0295358932805533
0.0312123708548008
0.033415713278185
0.0361044151641877
0.0390354632180782
0.0406991943357581
0.037120418617018
0.0362862185884544
0.0358180211931193
0.0394357783357417
0.0533436447924177
0.051444334669568
0.0275551103789816
0.0104615718476636
0.00606979319383761
0.0046903823942414
0.00395076269760849
0.00350102813752641
0.00325460532672863
0.00315984876455873
0.00317032380816743
0.00324270517084395
0.00334412716751937
0.00346010249912789
0.00359004513480758
0.00373997398878164
0.00392124791346626
0.00414712341292821
0.00443011012613264
0.00478230456854648
0.0052154599069588
0.00573454933776757
0.00632703967401446
0.00694926766112964
0.00752855193473743
0.00805138871034302
0.00853739725829155
0.00898404759870326
0.00939113285230272
0.00976163368063195
0.0100970010780823
0.0103983146153799
0.010666266835274
0.010901850786611
0.0111061122195019
0.0112802528581201
0.0114256009389289
0.0115436116001448
0.0116358386477005
0.0117039109381123
0.0117495023389814
0.0117743045875345
0.0117800011609934
0.0117682449565617
0.0117406392462716
0.0116987224815627
0.0116439568833226
0.0115777204127664
0.011501302353409
0.0114159001792841
0.0113226172739261
0.011222465586696
0.0111163681964156
0.0110051631802506
0.0108896078941158
0.0107703827382275
0.0106480974092495
0.0105232957675335
0.010396460172693
0.0102680170714152
0.0101383414220635
0.0100077610493133
0.00987656083969497
0.00974498669005754
0.00961324914491304
0.00948152678348372
0.00934996929873296
0.00921870044666705
0.0090878206783924
0.00895740988572739
0.00882752973228369
0.00869822664218286
0.00856953399858698
0.00844147629167797
0.0083140712747262
0.00818733743076801
0.00806129274406779
0.00793599344253593
0.00781146522584515
0.00768759573478305
0.007564279741861
0.00744181416540557
0.00732075950867565
0.00720198481900511
0.00708654412570722
0.0069761682460017
0.00687223253290905
0.00678304347024964
0.00669592832218754
0.00660259856760872
0.00656334152045077
0.00662986815859
0.00682586260990312
0.00715437918736195
0.00760847867940626
0.00817511103872794
0.00884265694285457
0.00959911549027786
0.0104322151937584
0.0113313590836842
0.0123025582565099
0.0133583503295306
0.0145114508496644
0.0157800445949436
0.017187386901084
0.0187411735499171
0.0203995756302245
0.0221253874840148
0.0238777753919969
0.0255612368107135
0.0270945766871393
0.0285830381460151
0.030482149336443
0.032834888434635
0.035464901363111
0.0370318404745134
0.0340772593074294
0.0334241073985737
0.0331934288453709
0.0358644077608626
0.049634329499638
0.052424082386821
0.0324805874258297
0.012484123147379
0.00651043897259523
0.00481068776327327
0.00400574378680675
0.00353294925357116
0.00327114380266026
0.00316097497502829
0.00315408672632332
0.00320858884847111
0.00329374724892093
0.00339636705737447
0.00351624290341337
0.00365924012284329
0.00383589163268384
0.00405825210206399
0.00433742895707437
0.00468363436753865
0.00510597276383083
0.00560662321869756
0.00617177729364654
0.00676128738287839
0.0073120770752158
0.00781312724099661
0.00828040609984841
0.00871076188898831
0.00910371478236111
0.00946161168355449
0.00978550100631591
0.0100763079992221
0.0103346890219379
0.0105615684294826
0.0107579453836156
0.0109249811229137
0.0110639690265663
0.0111763325329479
0.0112635959435363
0.0113273597182481
0.0113692699323122
0.0113909906675011
0.0113941776957264
0.0113804560538729
0.0113514010316306
0.0113085230395887
0.0112532563673619
0.0111869515579073
0.0111108712715863
0.0110261854971303
0.0109339719202657
0.010835217912556
0.0107308231919734
0.010621603741208
0.0105082961493743
0.0103915616716076
0.0102719922633293
0.0101501155553225
0.0100263993987787
0.00990125729057824
0.00977505288657728
0.00964810440145797
0.00952068881214315
0.00939304582433539
0.00926538154840666
0.00913787193810323
0.00901066595619902
0.00888388862001403
0.00875764379922303
0.00863201712344555
0.00850707861979982
0.00838288595106447
0.00825948718550869
0.00813692529041794
0.0080152414093217
0.00789448266076539
0.0077747043547878
0.00765600120605742