/*--------------------------------*- C++ -*----------------------------------*\
  =========                 |
  \\      /  F ield         | OpenFOAM: The Open Source CFD Toolbox
   \\    /   O peration     | Website:  https://openfoam.org
    \\  /    A nd           | Version:  7
     \\/     M anipulation  |
\*---------------------------------------------------------------------------*/
FoamFile
{
    version     2.0;
    format      ascii;
    class       volScalarField;
    location    "8000";
    object      omega;
}
// * * * * * * * * * * * * * * * * * * * * * * * * * * * * * * * * * * * * * //

dimensions      [0 0 -1 0 0 0 0];

internalField   nonuniform List<scalar> 
15600
(
1974.60613735576
1972.648325243
1984.42791022013
2055.78059759582
2222.67690004102
2356.686868098
2378.42128442444
2300.00018532342
2153.97031116953
1966.45861756929
1762.78479607635
1583.64547894744
1435.67966376577
1312.2349065017
1208.29531934702
1120.03744959636
1041.43040276847
963.351277377799
885.918292649371
810.58135114486
738.629427726828
671.777660481123
614.580438156229
568.667823075621
533.493089366932
508.868650769501
494.93483283514
492.061840314983
493.651539705996
493.651534338166
493.651534338173
493.651534338186
493.651534338214
493.651534338152
493.651534338164
493.651534338193
493.651534338173
493.651534338179
493.651534338187
493.651534338166
493.651534338199
493.651534338138
493.651534338171
493.651534338152
493.651534338165
493.651534338172
493.651534338187
493.651534338193
493.6515343382
493.651534338166
493.651534338172
493.651534338165
493.6515343382
493.651534338165
493.651534338146
493.651534338186
493.65153433818
493.651534338194
493.651534338178
493.651534338193
493.6515343382
493.651534338185
493.651534338193
493.651534338201
493.65153433813
493.651534338152
493.651534338177
493.651534338139
493.651534338172
493.65153433818
493.651534338191
493.651534338182
493.65153433818
493.651534338178
493.651534338194
493.651534338178
493.651534338152
493.651534338152
493.651534338159
493.651534338193
493.651534338166
493.651534338166
493.651534338171
493.651534338213
493.651534338157
493.651534338194
493.65153433817
493.651534338157
493.651534338187
493.651534338165
493.651534338165
493.651539706002
492.061840314982
494.934832835202
508.868650769232
533.493089366357
568.667823075228
614.580438156834
671.777660481449
738.629427726959
810.581351143299
885.918292648864
963.351277377646
1041.43040276902
1120.03744959597
1208.2953193011
1312.23490651725
1435.67966381516
1583.6454790092
1762.78479592733
1966.45861764716
2153.97031128258
2300.00018510395
2378.42128451691
2356.68686814436
2222.67690004416
2055.78059756207
1984.42791022399
1972.64832524326
1974.60613735531
419.811890718031
420.348038830368
454.441253582288
460.287134396829
460.346841520629
465.810105528354
468.65672067097
454.198119777832
426.45452490807
389.854778910749
349.960166393642
314.863063151681
285.86328616198
261.926975760083
242.0091518978
225.202924919664
210.026451304446
194.837281560808
179.580180350107
164.440857971591
149.765231907587
136.289797857737
124.794558584949
115.413069886978
108.244143831627
103.430569737351
101.660348923945
105.145477804843
106.231303689747
104.06389973642
102.582379451332
101.654038634061
100.948633749613
100.415484675338
100.033008473335
99.7677668939396
99.5150169109213
99.2761056338089
99.0508165245455
98.8393677095935
98.6420809448014
98.4592577755783
98.2910878203379
98.1376596604377
97.9989424466786
97.8748107772569
97.7650483997702
97.6693673543345
97.5874161925782
97.5187929323578
97.4630516921899
97.4197122457849
97.388264859206
97.368177378739
97.3588982825501
97.3598636124666
97.3704927017871
97.3902028051147
97.4184193491951
97.454531306556
97.4979746983802
97.5481701955546
97.6044949241267
97.6663787404182
97.7332565406007
97.8045606617332
97.8797304386351
97.9582116628742
98.0394564734447
98.122924083097
98.2080784315552
98.2943913095756
98.3813360559343
98.4683972777782
98.5550544221876
98.6408101662647
98.7251455931672
98.8076006282346
98.8876490243099
98.9649114592064
99.0385555129115
99.1216846003688
99.2383388272645
99.3770529722273
99.5233380668677
99.6865745360648
99.8647705575335
100.083131383533
100.332433986096
100.671414021388
101.136044560912
101.947728420127
100.737829540201
98.2470055090505
100.492814569018
104.998489672394
111.729558499034
120.587325448623
131.639202885234
144.580708072283
158.810167420074
173.88450272095
189.619013706445
205.79573278621
222.669104522725
241.410234715796
263.176122841829
288.83669212437
319.306314939837
355.607202809149
396.486256455341
435.953913078897
468.3789923935
488.013161614579
490.744994753663
479.528861031384
488.160658091532
493.617156591216
478.516822930147
436.831796344267
182.83511680782
175.131891309515
180.253132682458
184.260316662086
169.77051456111
166.248575652821
163.387439182286
159.273815427901
150.559280948662
138.073269745259
124.213014565617
111.848064370857
101.659038145458
93.2388851088011
86.2016811184714
80.2012604838723
74.7254015287982
69.2033383145455
63.6638501810191
58.2607958916101
53.1822341422918
48.6446223746424
44.9107019457105
42.0625850489258
40.0931663091332
39.0191581947065
38.860943612202
39.228319494808
39.2308599108225
39.0379237568494
39.0221312673496
39.0843094521019
39.1257937739504
39.1124865995959
39.0357838413287
38.9904488326695
38.9488741303784
38.9101636002658
38.873063976781
38.8370177113622
38.8017838219554
38.7673141442966
38.7336477405826
38.7008824951719
38.6691376492686
38.6385463919866
38.6092417195211
38.5813537016921
38.5550037845218
38.5303033857434
38.5073509586181
38.4862317350657
38.4670160831217
38.4497597737002
38.4345029736392
38.4212712560155
38.4100722987906
38.4009026235925
38.3937578049346
38.3885924470785
38.3853637876227
38.384024262504
38.3844918647794
38.3866917436453
38.3905400140106
38.3959402295677
38.4027877447754
38.4109703554754
38.4203690293754
38.4308593221589
38.4423113438938
38.4545928739585
38.4675678163535
38.4811035627502
38.4950650310309
38.5093333769694
38.5237865547282
38.5383486486522
38.5529302295084
38.5675578210322
38.5820380317857
38.5999536649777
38.594340507106
38.5686111892858
38.534924734142
38.4951440838412
38.4480820284075
38.3936659508699
38.3303165402394
38.2454367500621
38.1910029273737
38.1626883546164
37.9416744726832
37.6180283972502
37.9624916290032
39.2262033769333
41.3890658013628
44.3221019589863
47.9925455212387
52.2885786365325
57.1182533657572
62.3118860618884
67.8169760698704
73.5924085490441
79.8744161961839
86.8708315096626
94.8889694324443
104.234299436556
115.161063827626
127.755634896025
141.254168781232
154.394760382092
165.13745354112
170.860974478861
170.765957516992
168.828829760413
174.629173576203
188.225570793459
200.09553965034
196.32305069964
106.494283310625
99.8342514305255
103.678702484586
116.198426174465
104.590575543294
83.2308403236848
75.6420499583172
73.8688865016898
70.4969371373457
65.0141495517908
58.8097165975105
53.2902215684405
48.7859158214589
45.1241567020737
42.0533320932263
39.348576142809
36.7731255515295
34.1648840501928
31.5828583310345
29.1320122887072
26.9173587536832
25.0266193375613
23.5360360780149
22.4725941796501
21.8465530517057
21.6636785423787
21.8573600972405
22.1432189717277
22.1722633016445
22.152976446003
22.222362013671
22.3118452065838
22.3802920757373
22.4030451772439
22.4133127497154
22.4319994205481
22.4488643249767
22.4634502322628
22.4751676471332
22.4838659731055
22.4895701322553
22.4924177284167
22.4925926637548
22.4903088776027
22.4857880271318
22.479254891963
22.4709292992392
22.4610244424953
22.4497437881781
22.4372802651886
22.4238147580153
22.4095160236809
22.3945398882063
22.3790294312329
22.363114535285
22.3469123788382
22.3305272768001
22.314052880251
22.2975760609997
22.2811585519338
22.2648577526468
22.2487258933212
22.232794943467
22.217095176956
22.2016490633934
22.1864697105398
22.1715630877198
22.156928852033
22.142561162919
22.1284499331174
22.1145814480665
22.1009406885809
22.0875115358281
22.0742816173532
22.0612409503013
22.0483931647939
22.035748714355
22.0233525973717
22.0112601727771
21.9996086625827
21.9884481267639
21.9793030604195
21.9650191824707
21.935496447038
21.9008407008234
21.8642013533962
21.8260259472851
21.7872927260286
21.7485690083589
21.7078957756265
21.6841370508728
21.7045240172046
21.6207030403382
21.329999881543
21.2620199066785
21.6923598638454
22.6254916608248
23.9662860968175
25.6633095798001
27.6502040888341
29.9061531586568
32.3545673757558
34.9660418642706
37.7280964714702
40.7822682609088
44.1854522396299
48.0295264755569
52.4303545674328
57.4718575377316
63.0881758994645
68.7853037646802
74.1727451227706
78.4347307743104
80.3936779652139
79.8839465869522
79.2120260668846
83.6477260423222
93.3259418742981
107.485649030573
112.408373063155
70.3055593117969
66.3953682578957
69.7533330191576
86.3160783469877
84.9342128805008
56.1657480646917
43.3500411497899
41.230931301906
39.4404431197288
36.5404432628979
33.2856118217238
30.4652982717067
28.2248520436534
26.4625868696452
24.9822209856006
23.6257695782895
22.278605410353
20.9064561334654
19.5531292466323
18.282068533679
17.1568276373518
16.2247528338152
15.5154303558852
15.0484615032932
14.8442042447931
14.905154271079
15.1673512950325
15.44025894831
15.4609306944024
15.4187756102037
15.4552710443521
15.5115856144848
15.5572228684087
15.5848804395912
15.6098065218768
15.6371604855683
15.6620151214498
15.6840285819735
15.702843157262
15.7184056031754
15.7307762546186
15.7400923756675
15.7465215321027
15.7502509168576
15.7514722456348
15.7503784810253
15.7471585123098
15.7419959199429
15.7350669864253
15.7265400982699
15.7165748021425
15.7053217328509
15.6929221162836
15.6795078559604
15.6652012607415
15.6501155130319
15.63435537683
15.6180165675868
15.6011888567133
15.5839462904621
15.5663583785891
15.5484903962922
15.5303951416425
15.5121226411024
15.4937175003834
15.4752181683917
15.4566582832468
15.4380674736096
15.4194721595062
15.4008966645796
15.3823640636256
15.3638980841447
15.3455240085198
15.3272723136218
15.3091792323367
15.2912945113247
15.2736799940983
15.2564274982549
15.2396498700694
15.2235254919217
15.2082097574492
15.1945789060643
15.1803906627832
15.1601962800417
15.1372925894612
15.1150354937247
15.0949828511198
15.0792542762876
15.0700706015874
15.0707909590186
15.0934934218757
15.1785869906744
15.1629330347144
14.8813799830651
14.7098436564889
14.849795196348
15.3235690806687
16.0679346270478
17.0341920043531
18.1733748578462
19.4763789207908
20.9024400584251
22.4312109936449
24.056807745341
25.8669731044966
27.886244575151
30.1432323600733
32.684238257572
35.5385243708786
38.629372600753
41.6343804289851
44.3794264110619
46.4930006037659
47.4031725244511
47.0720370722496
46.8031761530565
49.8355216278589
56.0237323711118
66.0703468650727
71.7719204201631
50.138191677202
48.1800554731078
50.7300100842982
67.0760796080646
73.5975079513224
47.6433343710085
30.2779406726968
26.9608718172105
25.5493938763363
23.6937937686342
21.7165845634984
20.0770116286741
18.8320171613463
17.8982893534544
17.1145682065125
16.3625554221768
15.580345065696
14.7696314319496
13.9631866447819
13.2062068207665
12.5450671514041
12.0118325506629
11.6227438108973
11.3950203153999
11.3478541068909
11.4785815919426
11.7295767243844
11.9534298340467
11.95178065506
11.8953424001714
11.9094851105847
11.9433119587409
11.9736173359724
11.9979683930521
12.0221651786849
12.0470460592883
12.0697552064951
12.0899630252353
12.1073917437835
12.1219963350553
12.1338187249446
12.1429622954132
12.1495557914233
12.1537448226801
12.1556802206086
12.1555150533079
12.1534004556127
12.1494843750097
12.1439099542865
12.136814890045
12.1283306541782
12.1185823299936
12.1076882003295
12.0957597304307
12.0829013531387
12.0692112179856
12.0547810726139
12.0396955856695
12.0240348965485
12.0078685770877
11.9912623306028
11.9742785500822
11.9569714697896
11.9393928157888
11.9215906044551
11.9036088260679
11.8854883764311
11.8672678017015
11.8489840704599
11.8306735892551
11.8123731347536
11.7941215111705
11.775960754154
11.7579391222308
11.7401125297494
11.7225505121614
11.7053373023823
11.6885847322786
11.6724304487758
11.6570685885382
11.642702994571
11.6299472272335
11.6181345088497
11.6046710400396
11.5905466369541
11.5784146497165
11.5701726787547
11.5683328806891
11.5758528878083
11.5977728431082
11.6442004261252
11.7570458836374
11.7881520363854
11.5566183233038
11.3643774019497
11.3804836144549
11.6380237712294
12.0967149013557
12.7151452635846
13.4541388524283
14.3066617655819
15.2481543336616
16.2636674528874
17.3498564021871
18.565710842762
19.9263946960769
21.4395811503714
23.1237484623356
24.9877460586128
26.9648065097314
28.8310482900626
30.4856977304241
31.7354692213269
32.2694564089683
32.0814643239022
31.9770971576884
34.0984512462978
38.3654421601326
45.188167063699
49.8586597942261
37.8774549927473
37.0036390534088
38.871845947717
53.1420892892474
64.0117979306353
44.9804821948941
24.7976141131949
19.9924488253527
18.5625638747582
17.1794448594672
15.8111760688836
14.7312740131358
13.9534304653505
13.4007061616932
12.9371047288809
12.4695105028632
11.9609079875168
11.4238072905568
10.8851621957443
10.38085604971
9.9473172362314
9.60799079123887
9.37351537204042
9.2583303181852
9.27712626397535
9.42255834250794
9.64206469107287
9.81548522040159
9.79759375890002
9.7385165955722
9.74083942792438
9.76144611618357
9.7825002842694
9.80260711169385
9.82334525840361
9.84420359515378
9.86329552946144
9.88029164834528
9.89495085374656
9.90722075413314
9.91712225199077
9.92472943349604
9.93014001605751
9.93346780591609
9.93483299700027
9.93435917769611
9.93216971111109
9.92838635639296
9.92312777890309
9.91650881904347
9.90863976026369
9.89962607697432
9.8895680510126
9.87856068659684
9.86669361297876
9.85405185808302
9.84071493496346
9.82675699100187
9.81224850899719
9.79725239650545
9.78182829488102
9.76603317056273
9.74991834808429
9.73353304737207
9.7169238787872
9.70013477401975
9.68320770346268
9.66618336853793
9.64910194427368
9.63200402375505
9.61493157523369
9.59792943733565
9.58104665058829
9.56433904747173
9.54787109311166
9.53172079322698
9.51598199555233
9.5007744517
9.48624565549559
9.47259361822239
9.46004326418861
9.44907955815178
9.43963222929737
9.43055987152688
9.42215983499308
9.41648072788032
9.41541619921608
9.42152563753466
9.43801235974515
9.47028458714908
9.52734932369827
9.64837246454271
9.70898493513317
9.53310179181373
9.35016967776592
9.3088317388797
9.44946024888951
9.74831613685308
10.1717275118835
10.6874234756981
11.2886660970702
11.9592188480985
12.6877231935698
13.472181724012
14.35481560004
15.3471029835327
16.449242317583
17.667499171055
19.0020792461349
20.3971390824651
21.6882907619097
22.8068858785397
23.6412452486848
24.0062298421018
23.9050705382327
23.8777583528544
25.4182686867889
28.5578347547646
33.4334033284017
37.0579891207445
29.9002436841803
29.5897880396463
30.9961093481202
42.6525633120274
56.3995061010201
43.941011156369
22.7593135203348
16.2960426430049
14.6454979278473
13.487331260815
12.4385492928146
11.6488983665081
11.1085580541899
10.7441357454672
10.4384438110302
10.1154806689596
9.75139981056072
9.36181862772761
8.97004681822714
8.60590326542938
8.29878983040269
8.06642981919653
7.9163497994283
7.86006967098627
7.90759857023224
8.04822970658004
8.23410451878599
8.36617775235869
8.339289688357
8.28309961354342
8.27953108574258
8.29242358898789
8.30789425971562
8.32445013901524
8.34184166945481
8.35914077779288
8.37498094226571
8.38903915509757
8.40109846693699
8.4111006156409
8.41905228686546
8.4250079674772
8.429044918922
8.43125612777924
8.43174184137261
8.43060649676691
8.42795540112778
8.42389322514253
8.41852255556607
8.41194308270958
8.4042508807247
8.39553809114934
8.38589255591621
8.37539769637877
8.36413266156814
8.35217255602601
8.33958770500458
8.32644412608537
8.31280463211543
8.29872626305608
8.28426319716976
8.26946731643938
8.25438637192958
8.23906632672798
8.22355121915846
8.20788325261915
8.1921033971743
8.17625203994331
8.16036970113002
8.14449792398558
8.12868023000851
8.1129634960836
8.09739932981764
8.08204638408401
8.06697237906868
8.05225832115404
8.03800141008626
8.02432332105467
8.01137393902888
7.99934924278906
7.98848114706427
7.97918179577675
7.97162885779491
7.96540606105128
7.96071718855086
7.95913341646626
7.96244328273542
7.97311445168384
7.99435910133351
8.03147293421941
8.09262225501605
8.21289589401465
8.29072381348529
8.1636205276482
8.00114623570211
7.93372136665368
8.00600381578184
8.20638916396907
8.50835624649368
8.88510591838463
9.33000509018849
9.83152813210273
10.3808243329904
10.9767315112121
11.650847843235
12.4126890521563
13.2598062213517
14.1927856684489
15.207908017758
16.2583869845553
17.218419562941
18.0365539647549
18.6429460735271
18.9194429101623
18.8717077115862
18.8838049050624
20.0418588716655
22.4471152402915
26.117921712837
28.9704113977935
24.4023019149359
24.3816476699829
25.5012845266305
34.6256823433431
49.7571177528079
43.2651404485985
22.5815378036116
14.2998033170375
12.2657473732226
11.1972910776201
10.3265455706257
9.69860004480914
9.28770879555523
9.02282786898791
8.80088142411375
8.55784383992048
8.27729651206937
7.97520112490655
7.67220156932667
7.39363847025156
7.16363685342776
6.99590704684574
6.89592035512949
6.8724739200221
6.93159200198761
7.06049945906924
7.21602848570275
7.31649422214906
7.28584681798789
7.23489061695566
7.22877492743832
7.23730493711749
7.24938070719421
7.26330999876135
7.27804815028311
7.29257800449112
7.3058444364143
7.31753851061461
7.32746411763958
7.33556185006494
7.34183135483428
7.34631603582302
7.34908138554804
7.35020824028485
7.3497851779954
7.34790536821357
7.34466343572296
7.34015384789526
7.33446947976991
7.32770073953339
7.31993485383221
7.31125551050301
7.30174250877465
7.29147167227648
7.28051510856414
7.26894091835141
7.25681300451832
7.2441915051874
7.23113355690475
7.21769161086955
7.20391548251792
7.18985288183025
7.17554829949358
7.16104464022864
7.14638329485264
7.13160433830333
7.1167470682596
7.1018506240015
7.08695467970672
7.07210029143795
7.05733083802998
7.04269330700516
7.02823967106927
7.01402899921903
7.00012954199092
6.98662246634232
6.97360504276183
6.96119772836041
6.94954888497406
6.93884944487544
6.92933073725893
6.92135843395127
6.91521633416629
6.91086751538578
6.90856975302483
6.90957929199558
6.91554472886033
6.9287875455341
6.95241459558867
6.99142987053235
7.053287779536
7.16879814538735
7.25566871044023
7.16811954996918
7.02935751021943
6.95219481964622
6.98292961848282
7.11886857724075
7.33979182179437
7.6234944313626
7.96359399918406
8.35145673603429
8.7800499561937
9.24877085315632
9.78204902359581
10.3880745492601
11.0636271740948
11.806621932555
12.6115608310697
13.4388705534889
14.1893822767038
14.8223776458859
15.2913971357639
15.5166500868052
15.5033439659044
15.5362486446135
16.4312166242124
18.3247553403031
21.1951684579505
23.4983696211674
20.4269467726832
20.5557693042673
21.50179554358
28.4578596638376
43.7695365754278
42.2680585986523
23.4993998558055
13.3363982551145
10.7557147466899
9.68249496312732
8.91028181578007
8.37554965994035
8.03796002729002
7.82786168899796
7.65278064537342
7.45711187510505
7.22865051427767
6.98258168372185
6.73740552466136
6.5149551148009
6.33528685391711
6.20919729794079
6.14064925547839
6.13605203426105
6.19828570272399
6.31354549458812
6.44330164424776
6.52025339738384
6.48925246780555
6.44442612492511
6.43773927201909
6.4439948897322
6.45409328841947
6.46622447443128
6.47902883652105
6.4915213251831
6.50285137959503
6.5127301197982
6.52098190903622
6.52755086576026
6.53243552403538
6.53567483262645
6.53732909515736
6.53747344960201
6.53619090734439
6.53356914159457
6.52969747497802
6.52466518625316
6.51856007936157
6.51146756627861
6.50346995951294
6.49464609390362
6.48507099748278
6.47481594074848
6.46394845582738
6.4525320680793
6.44062639378033
6.42828750556687
6.41556850512776
6.40251844215672
6.38918381715943
6.3756090826859
6.36183600744433
6.34790487540867
6.33385468403199
6.31972341926166
6.3055485612518
6.29136768051456
6.27721911230274
6.26314276903187
6.24918106137267
6.23538011071715
6.22179110462358
6.20847224942751
6.1954908545065
6.18292670678147
6.17087535771195
6.15945435042578
6.14880841199311
6.13912189561967
6.13062137675205
6.12363973615158
6.11850372420009
6.11538041261374
6.11460041398892
6.11721966259759
6.12474538661546
6.13933584676538
6.16393854954837
6.20320501980217
6.26396248577156
6.37298177162115
6.46358234481745
6.40706432125649
6.29176557389205
6.21381849503461
6.21904448572461
6.31118655732701
6.47543796879943
6.69355798215678
6.9596002908536
7.26684334820476
7.60961770378702
7.98771217115989
8.42048518335755
8.91509640615101
9.46830873020549
10.0768485285863
10.7345085863917
11.407496850524
12.0159818180056
12.5267402143208
12.9072319448862
13.1006900635392
13.11042391126
13.1537945473109
13.860874360091
15.3809749841389
17.6853039241076
19.5871569915748
17.4381556666246
17.6432874151668
18.481114672459
23.7015454536111
38.3344594836085
40.7959490706667
24.9523997096404
13.0981470049815
9.79949648866087
8.63973267049236
7.9140047349265
7.43172568036394
7.13520501696812
6.95509736307221
6.80684433275462
6.6406871460559
6.44664571209234
6.23861668923869
6.03326462581508
5.84957861471916
5.70441582303929
5.60639332762249
5.55829845207965
5.56452069676048
5.62556329942927
5.72735618827094
5.83582156305372
5.8955257982561
5.86630516516761
5.82784368650822
5.82180718124802
5.82714103186171
5.83623303167329
5.84724488289573
5.85873470415819
5.86979324836162
5.87971552987614
5.88823691665958
5.89520282930662
5.90056487067439
5.90432512256815
5.90652314732952
5.90721901743452
5.90648698415387
5.90440901588832
5.90107154601858
5.89656255235725
5.89096980664803
5.88437944789557
5.8768750396431
5.86853687534123
5.85944159567346
5.84966191437608
5.83926674637306
5.82832094302148
5.8168853258173
5.80501684406903
5.79276891588169
5.78019189708266
5.76733242390026
5.75423456404206
5.74094029897716
5.72748921556653
5.71391943588355
5.70026789681029
5.68657068213296
5.67286351322912
5.65918232967553
5.64556394828371
5.63204684737189
5.61867206609455
5.60548435599374
5.592533503976
5.57987615633653
5.5675778666122
5.55571618892442
5.54438396246849
5.53369489726394
5.52378894547042
5.51484314137719
5.50707701282239
5.50079831182761
5.49634684796135
5.49399930590728
5.49414515730278
5.49771028720604
5.50607230252522
5.52122640862524
5.54593765907988
5.58449409236054
5.64315871403335
5.74506219283961
5.83597421778724
5.80337329855603
5.70974838062771
5.63595876677427
5.6258065616706
5.68752412184282
5.81086189419316
5.98103643123468
6.19268814945514
6.44045294976105
6.71971673683987
7.03055116312679
7.38859685830528
7.80015732173194
8.26227478637031
8.77125070252949
9.32073592170648
9.88166003096812
10.3888176818655
10.8146370750063
11.1352075968621
11.3079081625767
11.333350782579
11.3808415368791
11.9489554916413
13.1874821232929
15.0722789934544
16.6695993088515
15.1192994132421
15.3614713289789
16.1257548104087
20.017264995384
33.4040506708391
38.8670682210479
26.4961737755809
13.433253568569
9.24026637745716
7.9109465685193
7.19148296678092
6.73449961757392
6.45866107389157
6.29346975210226
6.16014691860953
6.01285219327363
5.8424987629475
5.66142188128301
5.48463784603772
5.3287691470126
5.2081114671061
5.12960824394939
5.09510306291999
5.10731942195423
5.16502376341694
5.25440984002183
5.34555147528426
5.39275365273633
5.36662044072009
5.3344595660604
5.32985816763063
5.33518108086373
5.34396075633653
5.35439617582278
5.36507726653192
5.37518363741897
5.38412122465012
5.39165248089944
5.39764475492918
5.40206038047573
5.40490866067892
5.40623370217781
5.40609915446444
5.40458205122713
5.40176675090163
5.39774166313334
5.39259640220112
5.38641999953416
5.37929948556935
5.37131893606392
5.36255879743496
5.35309551325418
5.34300137408367
5.33234448247323
5.32118855204576
5.3095931066328
5.29761366597272
5.28530208727441
5.27270698445381
5.25987337745717
5.24684361733145
5.23365786009666
5.22035398950444
5.2069683802725
5.19353623429242
5.18009195688115
5.16666964347592
5.1533036504663
5.14002924214337
5.12688335190225
5.11390545969788
5.10113869196867
5.0886311066952
5.07643740980265
5.06462094727679
5.05325657066477
5.04243386029408
5.03226221016659
5.02287620394521
5.01444525548496
5.00718062185178
5.00136951043632
4.9973501333691
4.9954558123832
4.99611542342212
5.00016617563402
5.00887106031631
5.02407009083376
5.04833922592147
5.08561355232952
5.14164158014515
5.23634954879758
5.32539832909197
5.31100043725571
5.23665634443799
5.16964700723851
5.15073558320741
5.19110431377687
5.2842638345255
5.41844897083533
5.58898830476008
5.79154726443351
6.02235366499701
6.28168901599041
6.58239241855422
6.93003661906149
7.32204449364919
7.75469537680686
8.22181286473048
8.69826929368361
9.13030233323786
9.49480992064755
9.77331654524279
9.93187637798854
9.9679481842022
10.0153031752867
10.4773445096574
11.4982165594814
13.0612930074906
14.4196121413409
13.2739441779812
13.5314528375579
14.2388397684996
17.1460960073533
28.9541266197042
36.5612816522421
27.788550844905
14.2607484224893
9.00113222353948
7.40996728678232
6.66008292363124
6.20794007385629
5.93855585497302
5.77819478437707
5.65205403146296
5.51671878129651
5.36304216443174
5.20161761512686
5.04592155351047
4.91056054457344
4.80774276998512
4.743096546667
4.7176990308564
4.73292731936944
4.78632232948874
4.86468575604107
4.94187314938626
4.98014996468181
4.95788476922866
4.93183163010123
4.92918635890804
4.93513405694322
4.94411516720742
4.95440758846171
4.96468751344886
4.9742241670862
4.982512939071
4.98934527343212
4.99461138255195
4.99828700910253
5.00039163742367
5.00097705024342
5.00011348783692
4.99788365262403
4.99437698196028
4.98968636932689
4.98390538168419
4.97712645231585
4.9694394773423
4.96093086365191
4.95168288197497
4.94177333905864
4.93127550396992
4.92025787154509
4.90878423444139
4.89691389568603
4.8847019035229
4.87219940857506
4.85945406859101
4.84650992620903
4.83340819160836
4.82018771772831
4.80688509098113
4.79353529378973
4.78017208366821
4.76682840524725
4.75353688003046
4.7403303721168
4.72724262602991
4.71430900901167
4.70156736749634
4.68905908257446
4.67683031508348
4.66493362973164
4.65342992148992
4.64239109063582
4.63190317140461
4.62207101162573
4.6130235498655
4.60492252539227
4.59797032934557
4.59243654141579
4.58865050374659
4.58697157231896
4.58785074647128
4.59206056932391
4.60076368209518
4.61565579962204
4.63912604327496
4.67477621974239
4.72788135566975
4.81558309113587
4.90141328380536
4.90070439498549
4.84310306937878
4.7841068813143
4.76083915208201
4.7862288517051
4.85682103298093
4.96347212371372
5.10225371594137
5.26965823084192
5.46260381446637
5.68153202479411
5.93712532094743
6.23432778950812
6.57096110567196
6.94349596053581
7.34611023779428
7.75704510158412
8.13174853173943
8.45073910474426
8.69889855786107
8.84740546335857
8.89031993656747
8.93443654224671
9.31324118146678
10.1624942916165
11.4725377702519
12.6382161374363
11.7747448237405
12.0352998612919
12.692816852756
14.8900662167091
24.9856255658853
33.9841579546098
28.6701359424658
15.5001422074024
9.0494921088584
7.08998626733741
6.27122135216172
5.80631030929612
5.53235753295872
5.36936001148785
5.24482945864085
5.11657262602287
4.97465617373298
4.82778096824886
4.68793355743821
4.56796190979749
4.47834176612654
4.42364666109625
4.40433071997406
4.42070288016294
4.46947580827013
4.53826439529634
4.60430711493713
4.63636112945911
4.61841180592642
4.5982273632208
4.59789446227611
4.60492557460023
4.61449995376088
4.62499785877302
4.63520529256877
4.64447710703789
4.65238420465544
4.65874831901854
4.66348346244566
4.66658104684939
4.66807319912999
4.66802195880782
4.66650662764887
4.66361792976042
4.6594525639322
4.65410993255702
4.64768941750991
4.64028856830836
4.63200172044898
4.62291905595784
4.61312599232275
4.60270297090077
4.59172523587764
4.58026271349592
4.56838021465289
4.55613766507954
4.54359039504043
4.5307895237695
4.5177823735028
4.50461252281507
4.49132050385582
4.47794428757391
4.46451950042215
4.45108002950709
4.43765843709259
4.42428640307305
4.41099522248715
4.39781636995361
4.38478213108535
4.37192632938154
4.3592851631543
4.34689822226019
4.33480969314301
4.32306990233212
4.31173717266341
4.30088033503368
4.29058174446092
4.28094162168407
4.27208317078758
4.26416054265408
4.25736704147052
4.25195658976618
4.24824611839133
4.2466030211662
4.24748692860234
4.25161956446303
4.2600754589889
4.2744176426554
4.29685540748668
4.33068032938353
4.38072907487336
4.46174123769198
4.54353996464216
4.55298150208329
4.50967572702058
4.45906874958321
4.43438456031082
4.44937070352041
4.50295782051493
4.58825827223365
4.7021019527821
4.84167619743717
5.0044789149669
5.19107750191929
5.41046646635394
5.66704974808629
5.95903237387687
6.2831880238871
6.63415929576186
6.99313253142679
7.32314839333219
7.60766559463116
7.83346847011512
7.97445204369544
8.021177362235
8.05960933438513
8.37152371617497
9.08324885083636
10.1904292040053
11.1976675952029
10.5358920234661
10.7924184463393
11.4025738751806
13.0980459803855
21.5077268196053
31.2555191935006
29.0826869580532
17.0290305183147
9.37797549637043
6.9281655189915
5.99617493371039
5.50117976331225
5.21311784982292
5.04134160768721
4.91397200116125
4.78901055608611
4.65514839630263
4.51904364406535
4.39119512436385
4.28287618809868
4.20309613654691
4.155565943443
4.14023543348308
4.15658124907464
4.20078952759503
4.26139285333458
4.3186143619435
4.34649944906494
4.33310502614688
4.31854415451526
4.32077347962806
4.32922992767778
4.33970438756186
4.35069095107734
4.3610927075964
4.37034457607646
4.37808352875794
4.38416250555959
4.38852024973481
4.39116581142437
4.39214608303506
4.39153556768597
4.38942473233439
4.38591431479128
4.3811101144668
4.37511973931275
4.36804993776958
4.36000479557832
4.35108438387117
4.34138384212246
4.33099283822101
4.31999542083175
4.30846963815451
4.29648770163421
4.28411618666608
4.27141631480243