/*--------------------------------*- C++ -*----------------------------------*\
  =========                 |
  \\      /  F ield         | OpenFOAM: The Open Source CFD Toolbox
   \\    /   O peration     | Website:  https://openfoam.org
    \\  /    A nd           | Version:  7
     \\/     M anipulation  |
\*---------------------------------------------------------------------------*/
FoamFile
{
    version     2.0;
    format      ascii;
    class       volScalarField;
    location    "8000";
    object      p;
}
// * * * * * * * * * * * * * * * * * * * * * * * * * * * * * * * * * * * * * //

dimensions      [0 2 -2 0 0 0 0];

internalField   nonuniform List<scalar> 
15600
(
0.884670473996471
0.892320699871586
0.88160798185669
0.923990650810573
0.963213469116175
0.986692303849169
0.997976395758156
1.0066499237608
1.01159725458035
1.01581040804872
1.0187588049989
1.02112808219812
1.02301177459399
1.02451318821027
1.02575076988162
1.02688574490756
1.02817979838477
1.02966053867864
1.03138148481468
1.03336995128891
1.0355679497366
1.03772133261693
1.03976683527527
1.04174563245472
1.04354018966683
1.04512378945979
1.04655891861613
1.04609154982599
1.04673289044424
1.04966982898573
1.0536860856644
1.05859578175303
1.06412174356754
1.0701326196036
1.07650192816196
1.08314017595519
1.08996724060495
1.09691561922705
1.10392545346914
1.11094466748517
1.1179278483901
1.12483596966444
1.13163601503354
1.13830058763794
1.144807536448
1.15113949532213
1.15728343764529
1.16323018946613
1.16897396404175
1.17451189736312
1.17984361779633
1.18497083888098
1.1898969947905
1.19462690799054
1.1991665029889
1.2035225477558
1.20770244842259
1.21171404639655
1.21556548892774
1.21926509042616
1.22282128051972
1.22624246806236
1.22953696273332
1.23271300294343
1.2357786849039
1.23874195916094
1.24161062036681
1.24439231246513
1.24709454050982
1.24972468773612
1.25229004561846
1.25479783982394
1.25725528215631
1.25966959858837
1.26204811873695
1.26439828718194
1.26672783451193
1.26904471490634
1.27135747908088
1.27367495894263
1.27600720713569
1.27836423254416
1.28075853083977
1.28320248330466
1.28571408397476
1.28830705273211
1.29100869882656
1.29383195109306
1.29682504134316
1.29998827219398
1.3034228927024
1.30704844706246
1.31115435932741
1.31591960561332
1.31970125567404
1.32357595316923
1.32710571146541
1.33036473913424
1.33317336612215
1.33533769652637
1.33634408162295
1.33609789124514
1.33426329337289
1.33073283543557
1.32524169053734
1.3186275832497
1.31066167869162
1.30074213546522
1.28822862509321
1.27168766062483
1.24833415508826
1.21169149915323
1.15964820311126
1.0900314201759
0.993516520585023
0.876650434322938
0.758600848039473
0.751552528032866
0.789909226797662
0.859719220503588
0.88469497447984
0.892461582378302
0.881842060410123
0.923552530119431
0.962498929860625
0.98615927087967
0.99761650681627
1.00638706141451
1.01141821384088
1.0156713837153
1.01866232393785
1.02105831845277
1.02296460070866
1.0244838147297
1.02573267394494
1.02686793927843
1.02815274245926
1.02962056570566
1.03132532725576
1.03329758923027
1.03548684745364
1.03764135430066
1.03969036288979
1.04167392916665
1.04347506847369
1.04506764958124
1.04651373380424
1.04607333445846
1.0467616458452
1.04971085899581
1.05372921362629
1.0586401098922
1.06416531007378
1.07017449277155
1.07654134273929
1.0831765648448
1.09000012075446
1.09694469899451
1.10395055203818
1.11096570642658
1.11794483404259
1.12484898047037
1.13164518815689
1.13830610672
1.14480962018187
1.15113838708499
1.15727939639448
1.16322348187958
1.16896485797944
1.17450065653416
1.17983049758697
1.18495608320169
1.18988083382948
1.19460955671713
1.19914816037417
1.20350339594361
1.20768264870234
1.21169376071656
1.21554494443825
1.21924447103118
1.22280065278562
1.22622188207521
1.22951648102443
1.23269268389634
1.23575857759822
1.23872210434181
1.24159105108917
1.24437305473409
1.24707561386741
1.24970610578396
1.25227181650176
1.25477996662477
1.25723776329203
1.25965242805026
1.26203128646381
1.26438177906285
1.26671163291472
1.26902879817503
1.27134182281043
1.27365953393377
1.27599198613064
1.27834917444551
1.28074358604833
1.28318759799816
1.28569923479934
1.28829219007962
1.29099384065675
1.29381703950495
1.29681024666682
1.29997353569308
1.30340915264969
1.30703436217925
1.31114202274588
1.31592876897198
1.3197264100285
1.32361813835365
1.3271554405249
1.3304125322425
1.33320350140986
1.33532602870157
1.3362703488498
1.33594867582869
1.33402822901093
1.33040774276163
1.32484730097006
1.31817659749843
1.31013038194143
1.30009912501711
1.28742240589235
1.27061874105378
1.24681733865711
1.20962876568712
1.15710279189814
1.08706007614572
0.990629176439823
0.875042488244302
0.759670626741926
0.753066215747313
0.79050376657555
0.859822443520319
0.884799620059829
0.892849506873187
0.882619588895853
0.923564674281463
0.96191334843493
0.985703466583273
0.997294280834101
1.00614835104652
1.01125248107846
1.01554049537947
1.01856987333171
1.02099146511477
1.02291971011811
1.02445668465966
1.02571768387587
1.02685453885855
1.02812887244104
1.02957938515657
1.03126018335656
1.0332039593651
1.03536686459704
1.03750455290593
1.03954121987542
1.04151490008461
1.04331109664214
1.0449009826006
1.04634692019371
1.04598978070378
1.04678095680127
1.0497426272673
1.05375779920553
1.05866436408642
1.06418277246754
1.07018481322936
1.07654418155295
1.08317187043436
1.08998792287096
1.09692526922426
1.1039242620037
1.11093302044961
1.11790627990154
1.12480513098632
1.13159664168279
1.13825347080691
1.1447534974855
1.15107936370998
1.15721803281812
1.16316030608602
1.16890036078053
1.17443528863362
1.17976466823442
1.18489016007469
1.18981514393647
1.19454438800785
1.1990837639814
1.20343998686278
1.20762043784121
1.21163293516931
1.21548552555346
1.2191864688669
1.22274418354497
1.22616704425669
1.22946334690865
1.23264130769765
1.23570900075035
1.23867435755496
1.24154515595002
1.24432902527488
1.24703345799433
1.24966582657374
1.25223341345623
1.25474343675157
1.25720310230684
1.25961963125321
1.2620003501248
1.26435270096899
1.26668441447509
1.26900344406598
1.2713183452888
1.27363794979156
1.27597231999449
1.27833147653601
1.28072794259333
1.28317406319747
1.28568793430826
1.28828323126909
1.29098751948092
1.29381349967952
1.29681016035223
1.29997688433207
1.30341748521451
1.30704662103048
1.31114563378784
1.31593521470133
1.31972847997611
1.32362314559288
1.32715345400445
1.33039603112677
1.33315667664926
1.33522851117078
1.33610845031081
1.33571531615963
1.33371809171266
1.33002345253193
1.32440981414564
1.31768759707102
1.30955957939934
1.29941493600957
1.28657373283092
1.26951229211289
1.24531565176578
1.20772549095838
1.15494641672675
1.0848764569779
0.989248937553601
0.87604388550713
0.764071780189799
0.756993791825047
0.79214016018703
0.860134688016724
0.885029251146167
0.893534463963879
0.884064478354087
0.924243923598672
0.961498613456841
0.985311530695192
0.996992826983673
1.00592015951406
1.01109198362112
1.01541053500656
1.01847632985366
1.02092399634434
1.02287539153297
1.02443164569491
1.02570662567348
1.02684622041012
1.02810686378618
1.02953288139074
1.0311789210986
1.03307954868518
1.03519761686788
1.03730207815148
1.03931385690956
1.04126751185451
1.04305296366515
1.04463699127693
1.04608331486534
1.04587094114708
1.04680355448377
1.04977173160335
1.0537750122756
1.05866792704028
1.06417044851614
1.07015693786998
1.07650113152087
1.08311450291951
1.08991703642783
1.09684187592241
1.10382945316403
1.11082796258042
1.11779217630029
1.12468319850242
1.1314680851835
1.13811946235269
1.14461515895668
1.15093775317188
1.15707413483535
1.16301502531576
1.16875451876916
1.17428962305426
1.17961983430128
1.18474673354397
1.18967362537374
1.19440520783169
1.19894728774983
1.20330652742625
1.20749022622533
1.21150610302258
1.21536223888849
1.21906690464541
1.22262844814553
1.22605521675689
1.22935548119851
1.23253743824134
1.23560914724383
1.23857852834989
1.24145335091829
1.24424123855834
1.24694968053549
1.24958604846351
1.25215762626557
1.25467163564864
1.25713528846745
1.25955581385996
1.26194054933694
1.2642969497351
1.26663276305657
1.26895596097086
1.27127512582335
1.27359911402388
1.27593802237676
1.27830196494859
1.28070354707562
1.28315504964724
1.28567471915764
1.28827626878781
1.29098761867772
1.29382130639403
1.29682718343031
1.30000360065109
1.30345616923977
1.30709757489609
1.3111736189617
1.31593231480007
1.31969255976576
1.32356811274346
1.32706963583158
1.33027860500953
1.3329893240279
1.33499370562496
1.33579857058528
1.33532853720489
1.33325331671506
1.3294892257124
1.32382990071664
1.31705611400116
1.30883930320182
1.29857031820074
1.2855485506702
1.26821080339476
1.24362561144636
1.20570339141146
1.15279472560433
1.08291606742234
0.988475696947929
0.878294980719353
0.770371264869904
0.762839900243613
0.795035650835074
0.860783602831765
0.885381529404003
0.894447288926422
0.885913832017723
0.925388499231699
0.961347616722834
0.985001028219095
0.996703075674985
1.00568388129926
1.01092600528216
1.01527512853773
1.01837810534676
1.02085438201725
1.02283209926336
1.0244110856802
1.0257032940053
1.02684735465518
1.0280916205764
1.02948729801361
1.03109046482363
1.03293831056184
1.0350011534403
1.03706455045031
1.03904648512021
1.0409772561593
1.04275211120497
1.04433404868977
1.04578687438746
1.04574243066005
1.04682082090227
1.04979260332378
1.05378133300075
1.0586553276656
1.06413666671768
1.07010256278127
1.07642688415487
1.08302156320876
1.08980666693607
1.09671551960241
1.1036886275402
1.11067424972078
1.11762718120936
1.12450852221782
1.13128529657075
1.13793007466996
1.14442061083358
1.15073939375781
1.15687321367127
1.16281268596587
1.16855179620498
1.17408744384209
1.17941901930638
1.18454800242702
1.18947760252957
1.19421242912449
1.1987582071983
1.2031215249074
1.20730960475686
1.21133013697462
1.21519117641308
1.21890091797699
1.22246765352295
1.22589969791345
1.22920529678657
1.23239262548049
1.23546972640938
1.23844450715377
1.24132472822636
1.24411800795519
1.24683183363816
1.24947357803344
1.25205052933031
1.25456991639762
1.25703896155404
1.25946490725662
1.26185510845113
1.26421704019741
1.26655847693208
1.26888741875593
1.27121248775282
1.27354257953449
1.27588784593555
1.27825849519926
1.28066729759344
1.28312647738395
1.28565442039963
1.28826490948909
1.29098631046206
1.29383097356226
1.29684972787834
1.30003973707163
1.30350790094277
1.30716568765026
1.31121248096206
1.31592171500972
1.3196301104997
1.32346842356426
1.32692214234628
1.33007961185428
1.33272131338595
1.33463961593056
1.33535286500377
1.33479207237409
1.33262754364589
1.32878666252948
1.32307715424655
1.31624504340955
1.30792790073385
1.29751751340155
1.28429014279042
1.26664220332794
1.24163707521171
1.20337645064373
1.15035747453858
1.08073346017699
0.98761106297605
0.880676114487255
0.777033680477187
0.769302317244855
0.798558614908507
0.861676300819555
0.88585557136686
0.895525870368821
0.887947382991912
0.926728294337745
0.961500540038852
0.984806971897372
0.996470840004419
1.0054403452991
1.01075318862589
1.01513573874341
1.01827792644909
1.02078598797546
1.02279364797139
1.02439895608552
1.02571115981192
1.02686077634666
1.02808668499598
1.02944807596619
1.03100321814859
1.03279273066897
1.03479466841029
1.03681243080535
1.03876135608567
1.04066755457593
1.04243152261729
1.04401340735037
1.04547545559373
1.04560291361334
1.04682309371264
1.04980113014207
1.05377798549169
1.05863166227994
1.06408991375928
1.07003287434122
1.07633491411953
1.08290855551535
1.08967406512759
1.09656495140931
1.10352181720108
1.11049298942269
1.11743328745687
1.12430380307474
1.13107152123872
1.13770894731689
1.14419375009444
1.15050831658386
1.15663932452533
1.16257727007024
1.16831601691142
1.173852343048
1.17918552062148
1.18431691627364
1.18924963282201
1.1939881805453
1.19853819637889
1.20290618029177
1.20709929441711
1.21112517652085
1.21499180403369
1.21870731514191
1.2222799608367
1.22571801942636
1.2290297077467
1.2322231765574
1.23530644889705
1.23828741786446
1.24117383369806
1.24397330847286
1.24669332697762
1.24934126298286
1.25192440921251
1.25445000234592
1.25692527620907
1.25935748797985
1.26175401186174
1.26412234527862
1.26647029174128
1.26880588263692
1.27113778324416
1.27347493215322
1.27582754274802
1.27820590450894
1.28062296377814
1.28309092386621
1.28562828863347
1.28824885498698
1.29098141691886
1.29383805552113
1.296870428369
1.30007434407775
1.3035567891279
1.30722896431495
1.31124567526032
1.31590281926205
1.31955259267628
1.3233430297655
1.32673597096614
1.32982874631889
1.33238747218779
1.33420593910172
1.33481417069724
1.33415036016382
1.33188584981463
1.32795973417445
1.32219216960928
1.31529238106845
1.30686281248502
1.29629485418916
1.28283943163822
1.26485293802422
1.23940159375245
1.2007917121891
1.14767153031932
1.07834903023574
0.986640086625274
0.883055652968919
0.783755740065283
0.775963867017226
0.802399295758758
0.862777768719045
0.886455613296152
0.896739874993014
0.890099470683312
0.928188714378733
0.961897361124443
0.98470216677628
0.996354440662064
1.0052090948902
1.01057823137383
1.01499656441658
1.018179911556
1.02072211220402
1.02276236419443
1.02439632198977
1.0257299506343
1.02688546931253
1.02809176048856
1.0294164696746
1.03092035745473
1.03264800256832
1.03458496443652
1.03655308119311
1.03846565385886
1.04034501417411
1.04209657157824
1.04367898691636
1.04515098136964
1.04545109224764
1.04680926701314
1.04979678229763
1.05376514559844
1.05859826272348
1.06403268405204
1.06995130762545
1.0762295323611
1.08278056914752
1.08952499088424
1.09639650789971
1.10333585134892
1.11029142474586
1.11721807963268
1.12407690032433
1.13083483195237
1.13746431097255
1.14394291525578
1.15025292328915
1.15638089260008
1.16231719171961
1.1680555537523
1.17359262640323
1.17892755477903
1.18406158381771
1.18899770163627
1.1937403115818
1.1982949539762
1.20266804013514
1.20686665527688
1.21089836392447
1.21477107521647
1.21849287615983
1.22207197318419
1.22551660456663
1.22883495494335
1.2320351478177
1.23512518477382
1.23811294269744
1.24100616018706
1.2438124420233
1.24653926974101
1.24919401764946
1.25178398278011
1.25431640961517
1.25679854367665
1.2592376572088
1.26164114415194
1.26401652482755
1.26637163238709
1.26871452994239
1.27105392620488
1.27339880256603
1.27575943517371
1.27814618238668
1.28057215157439
1.28304954919199
1.28559698434767
1.28822820452891
1.29097237515029
1.29384121609794
1.29688699809356
1.30010403864202
1.30359827400249
1.30728139708376
1.31126740943842
1.31587320266066
1.31946231407682
1.32319835508919
1.32652114668793
1.32953889597915
1.33200377002622
1.33371194800348
1.33420482263876
1.33342820183286
1.33105507459652
1.3270364559393
1.32120287039377
1.31422553698859
1.30567197446884
1.29493209042544
1.2812297200128
1.26288312839475
1.23696965524965
1.19800990129923
1.14480684672849
1.07584097134032
0.985644359392444
0.885490127148754
0.790528171326595
0.782744025293552
0.806475289551664
0.86408194355352
0.887178055875888
0.898067923353294
0.892334067740693
0.929745840794529
0.96242837457812
0.984657035556433
0.996362474664929
1.00501879538666
1.01040750255827
1.01486064889112
1.01808641402669
1.02066391622749
1.02273828970722
1.02440216845504
1.02575793025421
1.02691957460225
1.02810563548714
1.02939223656634
1.03084265094104
1.03250584041672
1.03437448925227
1.03628930348748
1.03816225980907
1.04001242746385
1.04174978062795
1.04333337322595
1.04481605625786
1.0452885452861
1.04678039520527
1.04978022355723
1.05374336351253
1.05855610153339
1.06396645258148
1.0698597879316
1.07611310661268
1.0826403531468
1.08936252271887
1.09621354742592
1.10313432209515
1.11007333694367
1.11698548649203
1.12383185123771
1.13057933869269
1.13720031578211
1.14367226749329
1.14997736035203
1.15610202728867
1.16203650403032
1.16777438737234
1.17331218864783
1.17864891968669
1.18378569744355
1.18872538894478
1.1934722865486
1.19803182493731
1.20241032087197
1.20661477668084
1.21065267868938
1.21453186979978
1.21826038089239
1.22184636857414
1.22529802804707
1.22862350906524
1.23183090555471
1.23492819570847
1.23792323853334
1.24082375962551
1.24363735536975
1.24637150318219
1.24903357725696
1.25163087846062
1.25417065875963
1.25666017516888
1.25910671487328
1.26151769144235
1.26390064794199
1.26626344685745
1.26861418246376
1.27096160583793
1.27331473935994
1.27568392072482
1.27807956552956
1.28051492186399
1.28300220661396
1.28556012527063
1.28820232097056
1.29095826195241
1.29383921680248
1.29689784871481
1.30012688604895
1.30363031997826
1.3073207966748
1.3112750309611
1.31583026193821
1.31935804068547
1.32303512755842
1.32628035597937
1.32921421896965
1.33157575181976
1.3331645866193
1.33353308920268
1.33263489650399
1.33014527842504
1.32602717246258
1.32011929077156
1.31305395651446
1.30436462726769
1.29343878365711
1.27947179631611
1.26074658105649
1.23436020785911
1.19505581083847
1.1417940129838
1.07324467395642
0.984659891910405
0.887999766248983
0.797334692002575
0.789583956735753
0.810720862675333
0.86556191594595
0.888017608757105
0.899493058596426
0.894624406761658
0.931349327261395
0.963031945524766
0.984675470104835
0.996445570159149
1.00489929725952
1.01024814165508
1.01472934360361
1.01799797807809
1.02061109954646
1.02272043454143
1.02441501261319
1.02579343986554
1.02696160694122
1.02812736619219
1.02937512611324
1.03077055089319
1.03236737626999
1.03416499916892
1.03602328353429
1.03785359624561
1.0396723629404
1.04139378013437
1.04297948738384
1.04447386077388
1.04511714658155
1.04673746996182
1.04975222453685
1.05371336679548
1.05850624922055
1.06389269784717
1.06976017955726
1.07598787482388
1.08249046957706
1.08918950764617
1.09601916149109
1.10292052712027
1.10984219184137
1.11673910583376
1.12357235113097
1.13030880219047
1.13692075834435
1.14338561254092
1.14968541881698
1.15580648405456
1.16173890886346
1.16747615074949
1.17301458116077
1.17835307476957
1.18349261635444
1.1884359477278
1.19318724560981
1.19775183489741
1.20213593375357
1.20634645646727
1.21039080976542
1.2142767661991
1.21801229623977
1.22160550344363
1.22506453720864
1.22839750995265
1.23161248380712
1.23471741164629
1.2377201328726
1.24062835859846
1.24344967553531
1.24619155588719
1.24886137279952
1.25146643016752
1.2540139867357
1.25651131035405
1.25896570250445
1.26138459566296
1.26377555479271
1.26614647055161
1.26850546686386
1.27086133487827
1.27322313472197
1.27560126208253
1.27800617792519
1.28045124915983
1.28294869762308
1.2855173138137
1.28817058859595
1.29093821332184
1.29383091649797
1.29690152819942
1.30014111046079
1.30365100802746
1.30734501114278
1.31126618041714
1.31577178257331
1.31923818287387
1.32285300907495
1.32601472423779
1.32885697174966
1.33110667914715
1.33256803068369
1.3328039548074
1.33177602951096
1.32916242124124
1.32493781511787
1.3189468908565
1.31178247071082
1.30294515488267
1.29181911742808
1.27757026516471
1.2584495834119
1.23158268615252
1.19194268167957
1.1386506530195
1.0705817496069
0.983708366199151
0.89059178646682
0.804158716880779
0.796444918392474
0.81509151784453
0.867193698564159
0.888970784326707
0.901002454137507
0.896958259700739
0.93294543259646
0.963691707031583
0.984784012964431
0.996538859871041
1.00487575140779
1.01011041209219
1.01460391323758
1.01791469098512
1.02056314687665
1.02270785801467
1.02443368654847
1.02583531344039
1.02701060541602
1.02815641656972
1.02936512876008
1.03070458076063
1.03223365391372
1.0339580359635
1.03575691338885
1.03754174619488
1.03932704304169
1.04103088271182
1.0426198135559
1.04412698281467
1.04493844046973
1.04668145283642
1.04971356268279
1.05367585080675
1.05844967897574
1.06381273551075
1.0696541319982
1.07585581052977
1.08233317737052
1.08900845875843
1.09581608307737
1.10269738650138
1.10960106356584
1.11648213409612
1.12330168825573
1.13002657389758
1.13662902681699
1.14308635116543
1.14938049048535
1.15549762673669
1.16142772564749
1.16716410490712
1.17270299487947
1.17804313133736
1.18318536449838
1.18813230972305
1.19288802328224
1.1974577170512
1.20184750956708
1.20606422295507
1.2101151817807
1.21400808472193
1.21775083899977
1.22135149257258
1.22481814655836
1.22815887370617
1.23138170220434
1.23449455768356
1.23750525815485
1.24042149864781
1.24325085475252
1.24600079214822
1.24867868173157
1.25129182930326
1.25384749931392
1.25635296936339
1.258815554102
1.26124270361451
1.26364200326876
1.26602136993771
1.26838895479892
1.27075358562871
1.27312435577344
1.27551171315475
1.27792615188398
1.2803811341354
1.28288887347225
1.28546822808481
1.28813249285073
1.29091149497513
1.29381533606943
1.29689678587835
1.30014517558952
1.30365867555087
1.30735218988709
1.31123882784019
1.31569576620089
1.31910100736568
1.32265110294456
1.32572453407988
1.3284684325782
1.3305987438551
1.33192528505114
1.3320211544425
1.33085591574838
1.32811120202888
1.32377309052773
1.31768999837973
1.31041489724008
1.30141698384499
1.29007631184673
1.27552872927155
1.25599729036151
1.2286451843005
1.18868237594707
1.13539331170503
1.06787339215312
0.982811974193232
0.893276541366542
0.810992932181417
0.803306809372575
0.819564999791703
0.868963966551773
0.890036325969417
0.902586752342889
0.899331430750053
0.934491197040504
0.964393178962196
0.984995072171545
0.996615290574844
1.00495762686819
1.01000929713617
1.01448672540581
1.0178368814266
1.02051980287629
1.02269994200575
1.02445739399492
1.0258827666995
1.02706594930894
1.02819248841037
1.02936235159703
1.0306452612003
1.03210559904442
1.03375492332138
1.03549180625868
1.03722848819241
1.03897838045645
1.04066310456799
1.04225645970354
1.04377754444853
1.04475379910119
1.04661336716592
1.04966505904523
1.05363148652358
1.05838727497023
1.06372772979285
1.06954309554835
1.07571864497591
1.08217045849721
1.08882158355973
1.09560671577005
1.1024674712675
1.10935266134172
1.11621739035941
1.12302276414625
1.12973561197353
1.13632811198648
1.14277748489518
1.14906556799489
1.15517842177093
1.16110587961617
1.16684112111123
1.1723802364553
1.17772182269493
1.18286659534831
1.18781704266769
1.19257709710819
1.19715185751975
1.20154734041776
1.20577027356343
1.20982789694301
1.21372783297593
1.21747792331083
1.22108615799612
1.22456058763642
1.22790924312464
1.23114011664027
1.2342611046592
1.23728000196879
1.24020448581915
1.2430421190843
1.24580035941424
1.24848657402189
1.25110806920916
1.25367211373578
1.25618599348455
1.25865703471344
1.26109270330318
1.26350060295841
1.26588867409485
1.268265091963
1.27063871648271
1.27301866857274
1.2754154406523
1.27783954729377
1.28030452109283
1.28282254890743
1.28541253254369
1.28808753002641
1.29087741254222
1.29379157156145
1.29688249359903
1.30013772265096
1.30365189426785
1.3073408114959
1.31119125293203
1.31560029935345
1.31894458142362
1.32242797237871
1.32540926426631
1.32804893716359
1.33005310673615
1.33123823895051
1.33118724722378
1.32987767366367
1.32699512448079
1.32253653601832
1.31635185641233
1.30895408257026
1.29978265166318
1.28821275492786
1.27335001641971
1.25339409190144
1.22555500480219
1.18528605639245
1.13203803530872
1.06514047141541
0.981992608132062
0.896065461897093
0.817834082295891
0.810157305650154
0.824128867540273
0.870865754645019
0.891214602972809
0.904239236306332
0.901741968680173
0.935959007474625
0.965120519624191
0.985297051793224
0.996690114584372
1.00512942031844
1.0099639112575
1.01438205169215
1.01776531313601
1.02048111085002
1.02269634961299
1.02448560004324
1.02593524834983
1.02712721152749
1.02823540988552
1.02936695476824
1.03059309865939
1.03198406072818
1.0335568592009
1.03522942990067
1.03691545903176
1.03862815482771
1.04029234013382
1.04189134964327
1.04342742752862
1.0445645079164
1.04653428279578
1.04960758325634
1.05358095758364
1.05831989515422
1.06363877574455
1.06942842180152
1.07557798398335
1.08200414904493
1.0886309269198
1.09539328679825
1.10223316479599
1.10909949765269
1.11594748979441
1.12273827100198
1.12943866136544
1.13602078892633
1.14246179825074
1.14874342672587
1.15485161897848
1.16077608078338
1.16650985742787
1.17204890186289
1.17739167432358
1.18253875812385
1.18749251331639
1.19225674771771
1.19683644886113
1.2012375290727
1.20546662053965
1.20953087701068
1.21343784288491
1.21719529228011
1.22081115532004
1.22429343010543
1.22765010364196
1.23088913012335
1.23401837497854
1.2370456079021
1.23997848658015
1.24282455944071
1.24559127442135
1.24828599339592
1.25091602149893
1.25348863009558
1.25601111152443
1.25849080168226
1.26093517994614
1.26335186574752
1.26574881969677
1.2681342372008
1.27051700485166
1.27290626447003
1.27531254340664
1.27774636337362
1.28022130147984
1.2827494957347
1.28534986085719
1.28803517893759
1.29083527012229
1.29375873721687
1.29685756956179
1.30011747144375
1.30362934095588
1.30730950784675
1.3111219016051
1.31548351645204
1.31876684856954
1.32218180611294
1.32506780044737
1.32759810527262
1.32947014181977
1.3305079319061
1.33030389341982
1.32884349660461
1.32581675348152
1.32123075550922
1.31493483361908
1.30740209624746
1.29804400512784
1.28623022382629
1.2710364342679
1.2506439061011
1.22231897640693
1.18176444373528
1.12860046197648
1.06240328917652
0.981270972317528
0.898969090672412
0.824679707470706
0.816987168800397
0.828774502078708
0.872895110515906
0.89250696059744
0.905955197407814
0.90418821556827
0.93733967756032
0.965859242344442
0.98567172698995
0.996797274094375
1.0053478920787
1.00999445979324
1.0142969490552
1.01770138486113
1.02044742926997
1.02269699673489
1.02451797232163
1.0259923632671
1.02719408404664
1.02828508437894
1.0293791318597
1.0305485992701
1.03186985747174
1.03336498954362
1.03497119711385
1.03660425092609
1.03827810662758
1.03992044469819
1.041526304336
1.04307836254453
1.044371792406
1.04644531288323
1.04954205640943
1.05352498061634
1.0582484064633
1.06354694639027
1.06931142151592
1.07543537544933
1.08183601540332
1.08843845452273
1.09517793677951
1.10199675788458
1.10884398778393
1.11567494688446
1.12245079787956
1.12913836232739
1.13570972726821
1.14214197025144
1.14841673708248
1.15451986421151
1.16044093658935
1.16617287104827
1.17171148806319
1.17705511537951
1.18220420766268
1.18716099532427
1.19192916579359
1.19651359567173
1.20092009259684
1.20515519266255
1.2092259624567
1.21313986712174
1.21690461170683
1.22052806473514
1.22401817005758
1.22738286892161
1.23063007565141
1.2337676227611
1.23680325295312
1.23974460248375
1.24259920347671
1.24537449230191
1.24807782362542
1.25071649948811
1.25329779185774
1.25582899734829
1.25831745912674
1.26077066728866
1.26319625385052
1.26560219560491
1.26799670347911
1.27038868429309
1.27278729311988
1.27520308093728
1.27764656249571
1.28013133242235
1.28266945513081
1.28527982129168
1.28797489902335
1.29078436006269
1.29371594546342
1.29682094607074
1.30008317383807
1.30358973224941
1.30725697100918
1.31102930299268
1.31534358433815
1.31856568952931
1.32191055337938
1.32469861352899
1.32711503746995
1.32884965238055
1.32973479583925
1.32937212057743
1.32775493336874
1.32457800467904
1.31985771483612
1.31344072064933
1.30576053026008
1.29620251908256
1.28413024340468
1.26859018157014
1.24775065477731
1.21894399697091
1.17812840596001
1.12509656242251
1.05968230112999
0.980666904867471
0.901996875954048
0.831527511972381
0.823789001221106
0.833495356191639
0.875049646613583
0.893915233262524
0.907731479251808
0.906668395375533
0.93864219510498
0.966590256773727
0.986099724497963
0.996966098654171
1.00556191207418
1.01011807190806
1.01424220641268
1.01764748212726
1.0204194979088
1.0227020657924
1.02455436788158
1.02605383938728
1.02726633875299
1.0283414609778
1.02939909647457
1.03051227295784
1.03176379788916
1.03318044225523
1.03471850680554
1.03629645423008
1.0379299757879
1.03954926693741
1.04116307891307
1.0427319756883
1.04417684402675
1.04634762541808
1.04946945838399
1.0534643190602
1.05817370465904
1.06345331736399
1.06919339370637
1.07529234238795
1.0816677908442
1.08824609224766
1.09496276149953
1.10176049247801
1.10858849512963
1.11540222198086
1.12216287821721
1.12883729867194
1.13539753997629
1.1418206235378
1.14808811381367
1.15418574874335
1.16010300125017
1.16583266748002
1.17137044194765
1.17671452693965
1.18186525116993
1.18682471773336
1.1915964990917
1.1961853613101
1.20059700835968
1.20483788047007
1.20891495682519
1.21283562262482
1.21660751275203
1.22023843279406
1.22373627085426
1.22710892071642
1.23036425505059
1.23351007161896
1.23655408420943
1.23950390570775
1.2423670499528
1.24515093972515
1.24786292040571
1.2505102887619
1.25310031506508
1.25564029767374
1.25813758425838
1.2605996723781
1.26303420296213
1.26544916430893
1.26785277751408
1.27025396220865
1.27266187811181
1.2750870868537
1.27754008124415
1.28003444524089
1.28258214312133
1.28520199880522
1.28790612902825
1.29072395803856
1.29366229793324
1.2967715555377
1.30003359457077
1.30353179959746
1.30718191797628
1.31091203134594
1.31517869070516
1.31833895209262
1.32161200202362
1.32429986885985
1.32659843446993
1.32819099728125
1.32891879394135
1.32839247659285
1.32661305055328
1.3232803134547
1.31841891781731
1.3118709131861
1.30403068985539
1.29425950696553
1.28191433219661
1.26601363693133
1.2447185947748
1.21543741722694
1.1743896234522
1.1215436371074
1.05699854255906
0.980199894479688
0.905157162674426
0.83837520079816
0.83055663333003
0.838286103703417
0.877327773590492
0.895441407786348
0.909566131853802
0.909180482584569
0.939888705788383
0.967286493316431
0.986558667763338
0.997205032354116
1.00574549642096
1.01034069359272
1.01423277943589
1.01760751652514
1.02039855340404
1.02271204568449
1.02459484739692
1.02611952061535
1.02734380877207
1.02840451662336
1.02942707145731
1.03048463195433
1.03166668875449
1.03300434334941
1.03447276476772
1.03599367982455
1.03758552238474
1.03918066818293
1.04080339020599
1.04238982756785
1.04398084591287
1.04624245497565
1.049390835447
1.05339979548029
1.05809672941308
1.06335898442442
1.0690756451679
1.07515040400287
1.08150119790659
1.08805574941259
1.09474983584518
1.10152658605661
1.10833535588206
1.1151317461562
1.12187701475742
1.12853802269135
1.1350868082201