/*--------------------------------*- C++ -*----------------------------------*\
  =========                 |
  \\      /  F ield         | OpenFOAM: The Open Source CFD Toolbox
   \\    /   O peration     | Website:  https://openfoam.org
    \\  /    A nd           | Version:  7
     \\/     M anipulation  |
\*---------------------------------------------------------------------------*/
FoamFile
{
    version     2.0;
    format      ascii;
    class       surfaceScalarField;
    location    "8000";
    object      phi;
}
// * * * * * * * * * * * * * * * * * * * * * * * * * * * * * * * * * * * * * //

dimensions      [0 3 -1 0 0 0 0];

internalField   nonuniform List<scalar> 
30950
(
8.89424028587175e-05
-1.49227747132447e-05
8.74817658699457e-05
1.46063694325898e-06
3.25453873810715e-05
5.49363786479324e-05
-1.69258298904239e-05
4.94712170807353e-05
-3.42012149726582e-05
1.72753850725403e-05
-2.79137533808061e-05
-6.28746157554272e-06
-2.16857030300695e-05
-6.22805034942647e-06
-1.78327655238735e-05
-3.85293750349936e-06
-1.64666185297373e-05
-1.36614700348719e-06
-1.58189102620967e-05
-6.47708264168508e-07
-1.58508089220487e-05
3.18986600588471e-08
-1.63603312513463e-05
5.09522331918962e-07
-1.73076200145285e-05
9.47288760172479e-07
-1.89778624270917e-05
1.67024241743417e-06
-2.16254909176752e-05
2.64762849046456e-06
-2.5330633612637e-05
3.70514269553089e-06
-2.96910518727988e-05
4.36041825792046e-06
-3.4605079616282e-05
4.91402774484577e-06
-3.98944121201517e-05
5.28933250195632e-06
-4.51204744613689e-05
5.22606234284906e-06
-4.97994333937601e-05
4.67895893254757e-06
-5.4237437339964e-05
4.43800394679021e-06
-5.85105207328479e-05
4.27308339320499e-06
-6.20256355982278e-05
3.51511486633241e-06
-6.4593473039207e-05
2.5678374421296e-06
-6.61084071501893e-05
1.51493411257081e-06
-6.65284046282669e-05
4.19997477382995e-07
-8.00285460909876e-05
1.35001414658553e-05
-9.91588549232698e-05
1.91303088320115e-05
-0.000111941502918618
1.27826479988808e-05
-0.000119936687939863
7.99518502252592e-06
-0.000124916764725383
4.98007678665194e-06
-0.000127785120593996
2.86835586832371e-06
-0.00012899425868522
1.20913809055827e-06
-0.000128849959195299
-1.44299492626773e-07
-0.000127570007621726
-1.27995157083283e-06
-0.000125329773486571
-2.24023413448427e-06
-0.000122264314183841
-3.06545929756059e-06
-0.000118492426364369
-3.77188782072847e-06
-0.000114120970761566
-4.3714556002645e-06
-0.000109247792115211
-4.87317864696225e-06
-0.000103962997695843
-5.28479441611467e-06
-9.83492350882863e-05
-5.61376261130622e-06
-9.24819639043336e-05
-5.8672711832198e-06
-8.64294285580471e-05
-6.05253534746351e-06
-8.02528349675062e-05
-6.17659358544249e-06
-7.40064956645786e-05
-6.24633930485649e-06
-6.77381368275762e-05
-6.26835883052959e-06
-6.14892390283425e-05
-6.24889780330787e-06
-5.52954725484964e-05
-6.19376647278453e-06
-4.91871477723329e-05
-6.10832477276252e-06
-4.31897137036725e-05
-5.99743405604905e-06
-3.73242445080376e-05
-5.86546918342546e-06
-3.16079391336782e-05
-5.71630536240864e-06
-2.60545814824807e-05
-5.55335763300635e-06
-2.06750129066438e-05
-5.37956857062402e-06
-1.54775029210894e-05
-5.19750994907357e-06
-1.04682102217621e-05
-5.00929269779461e-06
-5.65146218188262e-06
-4.81674802002557e-06
-1.02990301027968e-06
-4.62155919671034e-06
3.39449092471667e-06
-4.4243939078922e-06
7.62067370803168e-06
-4.2261828031115e-06
1.16488191797333e-05
-4.02814547286455e-06
1.54794500829401e-05
-3.83063094055253e-06
1.91132766811465e-05
-3.63382660944363e-06
2.25511351760688e-05
-3.43785851689826e-06
2.57938204245908e-05
-3.242685257521e-06
2.88419386452919e-05
-3.04811822663176e-06
3.1695764507927e-05
-2.85382586972397e-06
3.43550871619889e-05
-2.65932265441704e-06
3.68190742058113e-05
-2.46398705128246e-06
3.90860836418878e-05
-2.26700943557087e-06
4.11535266771645e-05
-2.06744304529274e-06
4.30175890681759e-05
-1.86406239074518e-06
4.46731068378611e-05
-1.65551778006246e-06
4.61130724844673e-05
-1.4399656442406e-06
4.73286079674194e-05
-1.2155354854723e-06
4.83079587274627e-05
-9.79350751231466e-07
4.90368627014942e-05
-7.28903975350781e-07
4.9496427776343e-05
-4.59565069179354e-07
4.96651745984606e-05
-1.68746829635047e-07
4.95149582520641e-05
1.50216346365871e-07
4.90155203213669e-05
4.9943792380102e-07
4.81165945147425e-05
8.98925810023167e-07
4.67658367759838e-05
1.35075773787293e-06
4.48682500123529e-05
1.89758677073151e-06
4.23438222344232e-05
2.52442777499988e-06
3.90116875327972e-05
3.33213470452587e-06
3.47548727784854e-05
4.25681475325258e-06
2.91905696607438e-05
5.56430312168668e-06
2.20809045082672e-05
7.10966515257725e-06
1.23475189139561e-05
9.7333855929701e-06
5.27084827244509e-06
7.07667063716152e-06
7.92909423873003e-06
-2.65824596378011e-06
1.10193346404106e-05
-3.09024040701919e-06
1.56463816102319e-05
-4.62704696547131e-06
2.08766010578006e-05
-5.23021944781711e-06
2.68712324231909e-05
-5.99463136485831e-06
3.3840605247447e-05
-6.96937282513631e-06
4.20474107727536e-05
-8.20680552479892e-06
5.04059178829112e-05
-8.35850711266113e-06
5.88779765078624e-05
-8.47205862827672e-06
6.7076412142011e-05
-8.19843564317382e-06
7.45800095430236e-05
-7.50359738255466e-06
7.97756098218159e-05
-5.19560027843841e-06
8.37423937010787e-05
-3.96678387644047e-06
8.72679682580133e-05
-3.52557456005882e-06
9.07544204033491e-05
-3.4864521693301e-06
9.51432058106669e-05
-4.38878537524524e-06
0.000102422359452845
-7.27915363794865e-06
0.000115140340940324
-1.27179814820067e-05
0.000131388200820116
-1.62478598715525e-05
0.000152672592497952
-2.12843916765927e-05
0.000183141035474775
-3.0468442972991e-05
0.000218540360398857
-3.53993249182917e-05
0.000234711494836671
-1.61711344367741e-05
0.000183991227935498
5.0720266906392e-05
0.000118698471450378
6.529275652887e-05
7.00787178491704e-05
4.86197538253207e-05
-3.94091043790675e-06
0.000280012778449808
-2.61971577758174e-05
0.00027063318649833
1.08402288619117e-05
0.000155573779632336
0.000169995785622415
6.44564225414771e-06
0.000198599354302718
-7.18514344693009e-05
9.55724617992029e-05
-7.04959971821764e-05
-7.64289884683766e-06
-5.70004651596172e-05
-1.97235823697757e-05
-4.86503665687887e-05
-1.22030360902469e-05
-4.56255085121139e-05
-4.39100507092917e-06
-4.48363038886463e-05
-1.43691288400859e-06
-4.57223758574901e-05
9.17970629485079e-07
-4.79887477784402e-05
2.77589425616538e-06
-5.16051700209723e-05
4.5637109990431e-06
-5.72652644251786e-05
7.33033682600269e-06
-6.54532014790168e-05
1.08355655436413e-05
-7.61106581804197e-05
1.43625993971787e-05
-8.83706841000456e-05
1.6620444175426e-05
-0.00010185463858634
1.83979822324284e-05
-0.000116031488884633
1.94661827988018e-05
-0.000130034824694215
1.922939815387e-05
-0.000143195495501116
1.78396297395638e-05
-0.000155850243299916
1.70927517460183e-05
-0.000167786767912996
1.62096080063713e-05
-0.000177983961462537
1.37123084162851e-05
-0.000186250466492088
1.08343424721294e-05
-0.000194260408038749
9.52487566002262e-06
-0.000205670455327822
1.18300447656619e-05
-0.000232841912736264
4.06715988759763e-05
-0.000262068477752392
4.83568738477409e-05
-0.000279376183336267
3.00903535845776e-05
-0.000288168447020735
1.67874487074608e-05
-0.000291833014818294
8.64464458457238e-06
-0.000291822377280886
2.85771833060718e-06
-0.00028900774922433
-1.60548996641404e-06
-0.000283952924753941
-5.19912396462338e-06
-0.000277060876722124
-8.17199960130941e-06
-0.000268632576437974
-1.06685344186419e-05
-0.000258914833818291
-1.27832019148525e-05
-0.000248117816868174
-1.45689047718338e-05
-0.000236426451111223
-1.60628213561517e-05
-0.000224005391545611
-1.72942382131996e-05
-0.000211002585628776
-1.82876003314846e-05
-0.00019755092366197
-1.906542458031e-05
-0.000183769650085537
-1.96485447594483e-05
-0.000169765239147253
-2.00569462866528e-05
-0.000155632290654941
-2.03095420754231e-05
-0.000141454297101959
-2.04243328591581e-05
-0.000127304458405973
-2.04181975235489e-05
-0.000113246472400821
-2.03068838109488e-05
-9.93353469993272e-05
-2.01048918712221e-05
-8.56181887966878e-05
-1.98254829744888e-05
-7.21349931148629e-05
-1.94806297324511e-05
-5.89193961655328e-05
-1.9081066127349e-05
-4.59994041381821e-05
-1.86362973847031e-05
-3.33980740663171e-05
-1.81546876966094e-05
-2.11341644262034e-05
-1.76434782091528e-05
-9.22260298126312e-06
-1.71090713762834e-05
2.32499103456967e-06
-1.65568867137311e-05
1.3498813112617e-05
-1.59905700882721e-05
2.42915344814118e-05
-1.54142805784254e-05
3.46983315870165e-05
-1.48311909997365e-05
4.47153691433282e-05
-1.42432203692841e-05
5.43397798083896e-05
-1.36525561376757e-05
6.35694268216728e-05
-1.30602779718499e-05
7.24025688066863e-05
-1.24669685991154e-05
8.08375781210356e-05
-1.18728678416566e-05
8.88726615197997e-05
-1.12777686599697e-05
9.65055907669879e-05
-1.06810474761365e-05
0.000103733427806789
-1.00816629126046e-05
0.000110552232550419
-9.47812739762411e-06
0.000116956760513195
-8.86851501743277e-06
0.000122940105005048
-8.2503539265626e-06
0.000128493327439763
-7.62066548485266e-06
0.000133604958685434
-6.97569363584775e-06
0.000138260513156553
-6.31107225641642e-06
0.000142441706815078
-5.62115930104552e-06
0.000146125805077898
-4.89963374948848e-06
0.000149284267219395
-4.13781288767335e-06
0.000151881906600967
-3.32654335752767e-06
0.000153874567938329
-2.45222640331997e-06
0.00015520663266614
-1.50081156144491e-06
0.000155812429356893
-4.5558034411161e-07
0.000155617677024375
6.94190252615755e-07
0.000154513030708015
2.00357212841453e-06
0.0001523570787965
3.50670964890144e-06
0.000148948307462207
5.30635810899202e-06
0.000144045427826727
7.42730740890596e-06
0.000137276208730599
1.01013538024591e-05
0.00012819390107454
1.33391224087076e-05
0.000116024393223175
1.77338109753192e-05
9.96197941413019e-05
2.35142642345182e-05
7.74433139897831e-05
3.19098657438974e-05
6.03434961740212e-05
2.41764884504996e-05
6.06928597572152e-05
-3.00760954514254e-06
6.62479256573944e-05
-8.64530631037586e-06
7.51285217157563e-05
-1.35076430211871e-05
8.5651179238018e-05
-1.57528769702117e-05
9.78355587044268e-05
-1.81790108309131e-05
0.000112067282806349
-2.12010969275772e-05
0.000128635742720384
-2.47752654385215e-05
0.000146153563647362
-2.58763280411139e-05
0.000164227770924849
-2.65462659077128e-05
0.000182250206401927
-2.62208711259958e-05
0.000199278665768629
-2.45320567382003e-05
0.000212848355033451
-1.87652895433542e-05
0.000223630636937007
-1.47490657784856e-05
0.000232720258044659
-1.26151956697001e-05
0.000241124541582518
-1.18907357233898e-05
0.000250576078950597
-1.38403227231173e-05
0.000264814020418354
-2.15170951037203e-05
0.000288665734459895
-3.65696955207337e-05
0.000321210473540758
-4.87925989480042e-05
0.000364981584609804
-6.50555027455827e-05
0.000425449054484389
-9.09359128462419e-05
0.000499393765845529
-0.000109344036276994
0.000553479203773396
-7.02565723643972e-05
0.000512661293917688
9.15381767626066e-05
0.000406509444445541
0.000171444606026415
0.000298232778178236
0.000156896420235013
2.55534722557847e-05
0.000442888146800044
-1.75267177978736e-05
0.000427183608161473
2.65447674827973e-05
0.000298466773208291
0.000298712620639147
7.80349742778661e-05
0.000419031153140297
-7.69314539556861e-05
0.000250538890032714
-0.000100671709229363
1.60973564385921e-05
-8.608637794841e-05
-3.43089136495741e-05
-7.58791223629742e-05
-2.24102916723503e-05
-7.23100091441623e-05
-7.96011829834068e-06
-7.22041360443877e-05
-1.5427859813038e-06
-7.45261472896881e-05
3.23998187492122e-06
-7.90204366637558e-05
7.27018363249741e-06
-8.56979290016555e-05
1.12412033340262e-05
-9.54386645014867e-05
1.70710723293774e-05
-0.000108635763277928
2.40326643200632e-05
-0.000124800430843695
3.05272669637986e-05
-0.00014261839629706
3.44384096279215e-05
-0.000161283030627638
3.70626165641392e-05
-0.000179899474119222
3.80826262896374e-05
-0.000197476748333907
3.68066723694348e-05
-0.000213557859392147
3.39207407978788e-05
-0.000228502399271212
3.203729162527e-05
-0.000242112577221005
2.98197859561223e-05
-0.00025378318053174
2.53829117272813e-05
-0.000263894955364182
2.09461173048725e-05
-0.00027460254025713
2.0232460553446e-05
-0.000289966427354371
2.7193931862649e-05
-0.000315481969009675
6.61871405321986e-05
-0.000338650405009863
7.15253098478795e-05
-0.000350625722822199
4.20656713978388e-05
-0.000355138210294992
2.12999361805837e-05
-0.000354970924759791
8.47735904967885e-06
-0.000351312127723688
-8.01078705519215e-07
-0.000344980405178563
-7.93721251159121e-06
-0.000336484409611719
-1.36951195320324e-05
-0.000326191074813956
-1.84653343983534e-05
-0.000314387395525505
-2.24722137069456e-05
-0.000301317646943417
-2.58529504956807e-05
-0.00028719096348755
-2.86955882279413e-05
-0.000272192783893765
-3.10610009492488e-05
-0.00025648872369704
-3.29982984100421e-05
-0.000240227931410452
-3.45483926172442e-05
-0.000223544596660587
-3.57487593309628e-05
-0.000206559273315092
-3.66338681046566e-05
-0.000189379755687582
-3.72364639143513e-05
-0.000172101939610652
-3.75873581511036e-05
-0.000154810600005633
-3.77156724645027e-05
-0.000137580190189465
-3.76486073381866e-05
-0.000120475636890521
-3.74114371106256e-05
-0.00010355314294565
-3.70273858144197e-05
-8.68609783698451e-05
-3.65176475494871e-05
-7.04402639866254e-05
-3.59013441129782e-05
-5.43257269650196e-05
-3.51956031462956e-05
-3.85464249555245e-05
-3.44155993915893e-05
-2.31264349237701e-05
-3.35746777245509e-05
-8.0854325882652e-06
-3.26844805435437e-05
6.56057514454379e-06
-3.17550791016574e-05
2.07986032650041e-05
-3.07949148338956e-05
3.46185211800517e-05
-2.98104879992065e-05
4.80124243429388e-05
-2.88081837463706e-05
6.09741335978968e-05
-2.77929002492882e-05
7.34988856173735e-05
-2.67679723929743e-05
8.55828575273112e-05
-2.57365280478077e-05
9.7222903870817e-05
-2.4700324323102e-05
0.000108416233205725
-2.36602979364468e-05
0.000119160091564969
-2.26167262056814e-05
0.00012945146873232
-2.15691458293539e-05
0.000139286805293754
-2.0516384039085e-05
0.000148661691686093
-1.9456549306747e-05
0.000157570551235249
-1.83869869470566e-05
0.000166006297350339
-1.7304261134418e-05
0.000173959949189394
-1.6204005765662e-05
0.000181420195273442
-1.50809115713325e-05
0.000188372873971572
-1.3928372334058e-05
0.000194800363881822
-1.27385621692285e-05
0.000200680814883933
-1.15016103027084e-05
0.000205987235570805
-1.02060544371435e-05
0.00021068627325355
-8.83685056843693e-06
0.000214736770107712
-7.37704021212584e-06
0.000218087805819245
-5.80326211357924e-06
0.000220676342470827
-4.08934821491726e-06
0.000222424933057151
-2.20417093053931e-06
0.000223238436537503
-1.19313229634445e-07
0.000222991996188259
2.25001247846658e-06
0.000221521746798989
4.97695903781637e-06
0.000218608236088088
8.21986882161133e-06
0.00021396318246132
1.20723610348647e-05
0.000207186529006374
1.68780072581715e-05
0.000197719824585962
2.28058268287811e-05
0.00018475903940698
3.06945961552392e-05
0.000166924959332285
4.1348344309189e-05
0.000142503187383857
5.63316376919578e-05
0.000121834671142254
4.48450046908036e-05
0.000117392475774552
1.43458582330193e-06
0.000121292390013298
-1.25452205506282e-05
0.000129777485157605
-2.19927381643475e-05
0.0001410166069318
-2.69919987445555e-05
0.000154633624962692
-3.17960288617461e-05
0.00017095445749955
-3.75219294646921e-05
0.000190164305630776
-4.39851135696373e-05
0.000211148937273465
-4.68609596844137e-05
0.000233253755537679
-4.86510841727739e-05
0.000255835045296919
-4.8802160887874e-05
0.000277798604396225
-4.64956158320699e-05
0.000296848314040635
-3.78149991875928e-05
0.000312949460931474
-3.08502126683573e-05
0.000327022705961444
-2.66884407003527e-05
0.000340182595685049
-2.50506254547407e-05
0.000354195959148553
-2.78536861755006e-05
0.000372987130005713
-4.03082659591278e-05
0.000401810881860153
-6.53934473729808e-05
0.000441140669566531
-8.81223866514194e-05
0.000493137440651238
-0.00011705227382944
0.00056191691026929
-0.000159715382463002
0.000645636346568633
-0.000193063472574293
0.00071769708176483
-0.000142317307559405
0.000711506802611771
9.77284559163341e-05
0.000625387793389384
0.000257563615264441
0.000510158535456849
0.000272125678250231
8.41534208812532e-05
0.000557368940772824
5.62475515733823e-06
0.000538321351643587
4.55923566009036e-05
0.000419874186715344
0.000417159785601228
0.0001724301747587
0.000666475165038752
-4.77041238063022e-05
0.000470673188604138
-0.000112660926235827
8.10541588763e-05
-0.000105126487186386
-4.18433526977596e-05
-9.60010158934042e-05
-3.15357629621079e-05
-9.3306480268346e-05
-1.06546539300473e-05
-9.46561332728093e-05
-1.93132974956475e-07
-9.87879513394879e-05
7.37179994198617e-06
-0.000105483655928548
1.39658882233559e-05
-0.000114729217411571
2.04867648146021e-05
-0.000127284091036778
2.96259459565645e-05
-0.000143201251378726
3.99498246617191e-05
-0.000161570104731494
4.88961203169951e-05
-0.00018093690323659
5.38052081324464e-05
-0.000200449147156032
5.65748604843597e-05
-0.000219322449256126
5.69559283893431e-05
-0.000236859843863966
5.43440669777383e-05
-0.000252938102383332
4.99989993171485e-05
-0.000267923351970304
4.70225412121803e-05
-0.000281631690401132
4.35281243867461e-05
-0.000293705179891701
3.74564012177228e-05
-0.000304652556385188
3.18934937982615e-05
-0.000316246557778827
3.18264619470946e-05
-0.000331913895105998
4.28612691894274e-05
-0.000353868420508212
8.81416659346864e-05
-0.000372031211807196
8.96881011466115e-05
-0.000380665885363439
5.07003449543944e-05
-0.000382870492199194
2.35045430163267e-05
-0.000380764910447874
6.37177729836989e-06
-0.000375337212650613
-6.22877650295091e-06
-0.000367315461241877
-1.59589639204751e-05
-0.000357159127058362
-2.38514537159692e-05
-0.000345224075289155
-3.04003861672898e-05
-0.000331788210699653
-3.59080782965641e-05
-0.00031709133309185
-4.05498281030346e-05
-0.000301340667757321
-4.44462535627936e-05
-0.000284721295883633
-4.76803728227646e-05
-0.000267399292619284
-5.03203016746589e-05
-0.000249524735501128
-5.24229497351502e-05
-0.000231233022430523
-5.40404724021946e-05
-0.000212646050104252
-5.52208404309158e-05
-0.000193873024338038
-5.60094896808778e-05
-0.000175011256480066
-5.64491260085999e-05
-0.000156146912014098
-5.65800169308772e-05
-0.000137355780255495
-5.64397390962569e-05
-0.000118704056174966
-5.60631611918064e-05
-0.000100249130501392
-5.54823114875025e-05
-8.20403773108905e-05
-5.47264007400835e-05
-6.41199339132793e-05
-5.38217875098676e-05
-4.65234588880054e-05
-5.27920781709043e-05
-2.92808572834638e-05
-5.1658200995535e-05
-1.24169614158569e-05
-5.04385735910262e-05
4.04781814817455e-06
-4.91492601076854e-05
2.00967765675755e-05
-4.78040375182487e-05
3.5716458712087e-05
-4.64145969787726e-05
5.08962660911119e-05
-4.49902953765726e-05
6.56277607165605e-05
-4.35396783741503e-05
7.99043047640953e-05
-4.2069444294389e-05
9.37207082234458e-05
-4.05843758540748e-05
0.000107072742486808
-3.90885623107833e-05
0.000119956857720723
-3.75844395599516e-05
0.000132369860195441
-3.60733004116403e-05
0.000144308582524346
-3.45554485361984e-05
0.000155769581483016
-3.30301447884178e-05
0.000166748834669443
-3.14956372257002e-05
0.000177241429429889
-2.99491440676176e-05
0.000187241236972341
-2.83867944892144e-05
0.000196740556582408
-2.68035807449986e-05
0.000205729724394761
-2.51931735776597e-05
0.000214196658395948
-2.35478455733797e-05
0.000222126338830345
-2.1858052768151e-05
0.000229500166340638
-2.01123896805271e-05
0.00023629521458695
-1.82966585485728e-05
0.000242483249170095
-1.63940890205518e-05
0.000248029591757151
-1.43831931543917e-05
0.000252891514435224
-1.22389628903149e-05
0.000257016452007556
-9.92819968519017e-06
0.000260339626546585
-7.41252275475019e-06
0.000262779239295901
-4.64378367974825e-06
0.000264234273512635
-1.57434744717535e-06
0.000264578060750116
1.90622524144936e-06
0.000263643707387277
5.91131240049106e-06
0.000261214838737366
1.06487374723687e-05
0.000257000229974042
1.62869697978712e-05
0.000250613624730453
2.32646125021842e-05
0.000241497496149792
3.19219554093204e-05
0.000228910213431728
4.32818788737818e-05
0.000211600940631916
5.86576171090117e-05
0.000187891446946045
8.00411313777228e-05
0.0001664824446821
6.62540069542433e-05
0.00015903604391924
8.8809865865967e-06
0.000160950342324143
-1.44595189561553e-05
0.000168244113491715
-2.92865093313387e-05
0.000179068272864895
-3.78161581177965e-05
0.000192762157646685
-4.54899136435026e-05
0.000209520109848099
-5.42798816662404e-05
0.000229421833147664
-6.3886836869155e-05
0.000251520844671193
-6.89599712081926e-05
0.000275059897002473
-7.21901365044049e-05
0.000299376674906592
-7.31189387933363e-05
0.000323341463394472
-7.04604043176934e-05
0.000344897457116681
-5.93709929099567e-05
0.000363699081582288
-4.96518371337654e-05
0.000380526887923525
-4.35162470419096e-05
0.000396470878683945
-4.09946162193004e-05
0.000413212618788852
-4.45954262758142e-05
0.00043446132858113
-6.15569757513296e-05
0.000465269641264997
-9.62017600565432e-05
0.000506877812923527
-0.000129730558309473
0.000561152950295197
-0.000171327411201424
0.000631149556388537
-0.00022971198855662
0.00071556489801776
-0.000277478814203557
0.000791969980634432
-0.00021872239017623
0.000806657223231179
8.3041213317972e-05
0.000747640373274044
0.000316580465226782
0.000648273626273153
0.000371492425293093
0.00015190663339571
0.000641386644172444
3.52812091669482e-05
0.000620117112403194
6.68618883638155e-05
0.000516876246365065
0.000520400651664003
0.000269796036846412
0.000913555374518624
4.39278251304469e-06
0.000736076442938319
-0.000107207396452096
0.000192654337846234
-0.00011386688244421
-3.51838667057356e-05
-0.000107730868232696
-3.76717771717912e-05
-0.000106570445849246
-1.18150763174555e-05
-0.000109625411252352
2.86183242914024e-06
-0.000115471919205915
1.32183078955206e-05
-0.000123903780045646
2.23977490639399e-05
-0.000134837008043311
3.14199928106008e-05
-0.000148846744146555
4.36356820609858e-05
-0.000165775701485528
5.68787820007373e-05
-0.000184620860891177
6.77412797232904e-05
-0.000204109227776651
7.32935750180733e-05
-0.000223542116030116
7.60077487387244e-05
-0.000242301255742378
7.57150681017052e-05
-0.00025986432428759
7.19071355234666e-05
-0.000276196739249031
6.63314142786426e-05
-0.000291559949720703
6.23857516838811e-05
-0.000305732297904469
5.77004725704263e-05
-0.000318440139615602
5.01642429288083e-05
-0.000330145677482884
4.35990316655111e-05
-0.000342198567028801
4.38793514930428e-05
-0.000357376591151193
5.8039293311642e-05
-0.00037654017420772
0.000107305248991455
-0.000391527352034736
0.000104675278973584
-0.000398214132021119
5.73871249410822e-05
-0.00039908680026698
2.43772112623013e-05
-0.000395837778635176
3.12275566670289e-06
-0.000389340677321904
-1.27258778162193e-05
-0.000380268021710338
-2.50316195319996e-05
-0.000369057304391486
-3.50621710349635e-05
-0.000356056637155979
-4.34010534025018e-05
-0.00034154167638107
-5.04230390714298e-05
-0.000325751787647434
-5.63397168362126e-05
-0.000308895351878763
-6.13026893315208e-05
-0.000291159320481567
-6.54164042196707e-05
-0.000272712003501846
-6.8767618654403e-05
-0.000253705842810914
-7.14291104257453e-05
-0.000234278627977446
-7.34676872358986e-05
-0.000214554588409548
-7.4944879998632e-05
-0.000194645167500798
-7.59189105896549e-05
-0.000174649785609243
-7.64445078996544e-05
-0.000154656575777375
-7.65732267627816e-05
-0.000134743142615468
-7.63531722576003e-05
-0.000114977342516785
-7.58289612906104e-05
-9.5418074154754e-05
-7.50415798488924e-05
-7.61160713577622e-05
-7.40284035367624e-05
-5.71146889321617e-05
-7.28231699345654e-05
-3.84506696736055e-05
-7.14560974286006e-05
-2.01548780221248e-05
-6.99539926461339e-05
-2.25298465413741e-06
-6.83404669578399e-05
1.52337987133024e-05
-6.66360434746695e-05
3.22881407854568e-05
-6.4858379588288e-05
4.88960802593645e-05
-6.30225364525456e-05
6.50464969381013e-05
-6.11407120541205e-05
8.07305225031912e-05
-5.92237039405741e-05
9.59411281349875e-05
-5.72800499247876e-05
0.000110672767077255
-5.5316014797597e-05
0.000124920897646654
-5.33366928803419e-05
0.000138681677524782
-5.13452194403403e-05
0.000151951634082903
-4.93432569706217e-05
0.000164727326448525
-4.73311409033216e-05
0.000177005034883834
-4.5307853224518e-05
0.000188780448758769
-4.32710511012297e-05
0.000200048347319783
-4.12170426293582e-05
0.000210802266142754
-3.9140713312413e-05
0.000221034132723414
-3.70354473263591e-05
0.000230733868705133
-3.48929095595393e-05
0.000239888925075296
-3.27029019444193e-05
0.000248483759133416
-3.04528868264238e-05
0.000256499179761725
-2.81278103097493e-05
0.000263911605931766
-2.57090847185905e-05
0.00027069206414755
-2.31745472367059e-05
0.000276805083672161
-2.04962126785026e-05
0.000282207048880212
-1.7640928098593e-05
0.000286844465648523
-1.4565616453223e-05
0.000290651488516907
-1.12195456238042e-05
0.000293545086208345
-7.53738137131353e-06
0.000295420321385053
-3.44958262456561e-06
0.000296148784156231
1.17776247042288e-06
0.00029556453034517
6.49556621134628e-06
0.000293454631471356
1.27586363466081e-05
0.000289531622490545
2.02099787783869e-05
0.000283423014921018
2.93732200719124e-05
0.000274591728589165
4.07532417410384e-05
0.000262349647575407
5.55239598877688e-05
0.000245600766627616
7.5406498056729e-05
0.000222819215685848
0.000102822682319316
0.000201465519492929
8.76077031467325e-05
0.0001923366041129
1.80099019667594e-05
0.000192728119435916
-1.4851034279647e-05
0.000198993893950064
-3.55522838451998e-05
0.000209325836293296
-4.81481004611461e-05
0.000222898978881783
-5.90630562320346e-05
0.000239790507507724
-7.11714102923062e-05
0.000259987716394968
-8.40840457563743e-05
0.000282615107687389
-9.15873625007522e-05
0.000306869863916174
-9.64448927333804e-05
0.000332057295112311
-9.83063699902153e-05
0.000357018108837913
-9.54212180417527e-05
0.000379851343529778
-8.22042276017062e-05
0.000400099892490222
-6.99003860939118e-05
0.000418462347938695
-6.18787024903127e-05
0.000435999752362693
-5.85320206456116e-05
0.000454359855769232
-6.29555296789774e-05
0.000477097078103508
-8.42941980851312e-05
0.000509025845669493
-0.000128130527621806
0.000551760294522607
-0.000172465007161893
0.000607068758017142
-0.000226635874695543
0.000677355760611568
-0.000299998991150598
0.000761182610547404
-0.000361305664138748
0.000837522783132103
-0.000295062562760182
0.00086088996536022
5.96740310898858e-05
0.000818969916893507
0.000358500513698391
0.00073671289658657
0.000453749445630413
0.000217576431781162
0.000708010684881322
6.66234682088372e-05
0.000685599278387714
8.92732948520267e-05
0.000596984031226326
0.00060901589883976
0.000362932389322868
0.00114760701639294
6.87048336572642e-05
0.00103030399860884
-8.91672995836917e-05
0.000350526471090946
-0.000115853495923073
-8.49767036602711e-06
-0.000113791746155239
-3.97335269377843e-05
-0.000114105900539123
-1.15009219364649e-05
-0.000118634018584777
7.38995047550914e-06
-0.000125898638667262
2.04829279782572e-05
-0.000135664860353005
3.21639707504084e-05
-0.000147782534191269
4.35376666475199e-05
-0.000162693079414583
5.85462272848358e-05
-0.00018016992190693
7.43556244928728e-05
-0.000199268708078406
8.68400658951065e-05
-0.000218915748292029
9.29406152318049e-05
-0.000238523103892703
9.56151043400399e-05
-0.000257557481965557
9.47494461746552e-05
-0.000275559262333527
8.99089158917347e-05
-0.000292480531647028
8.32526835920863e-05
-0.000308480270520244
7.83854905570313e-05
-0.000323307488592081
7.25276906420777e-05
-0.000336715997349218
6.35727516857686e-05
-0.000349083459992839
5.59664943089371e-05
-0.000361420161611101
5.62160531111462e-05
-0.000375970167662657
7.25892993628834e-05
-0.000392961365161982
0.000124296446490776
-0.000405676351732999
0.000117390265544418
-0.000410988447417898
6.26992206260192e-05
-0.000410905641385445
2.42944052297693e-05
-0.000406815414195238
-9.67471523551092e-07
-0.000399513824982337
-2.0027467029241e-05
-0.000389631731284928
-3.49137132294932e-05
-0.000377592374238524
-4.71015280815684e-05
-0.000363739566344303
-5.7253861296619e-05
-0.000348349374439077
-6.58132309767631e-05
-0.000331662622007587
-7.3026469267542e-05
-0.000313890243011984
-7.90750683273179e-05
-0.000295222083687656
-8.40845635439461e-05
-0.00027582949926127
-8.81602030809666e-05
-0.000255867945775983
-9.13906639109513e-05
-0.000235478134120589
-9.38574988916444e-05
-0.000214787063665279
-9.56359504539573e-05
-0.000193908775449634
-9.67971988055016e-05
-0.000172945096781557
-9.74081865675512e-05
-0.000151986372666882
-9.75319508776802e-05
-0.000131112223003646
-9.72273219206667e-05
-0.000110392327220933
-9.65488570736596e-05
-8.98872213737873e-05
-9.5546685695912e-05
-6.96491007336352e-05
-9.42665241770824e-05
-4.97226160980385e-05
-9.27496545699988e-05
-3.01456529284932e-05
-9.10330605980395e-05
-1.09500708232566e-05
-8.91495747512741e-05
7.83755429629233e-06
-8.71280920771418e-05
2.61952512577245e-05
-8.49937404362601e-05
4.4105070132654e-05
-8.27681984623295e-05
6.15524885408986e-05
-8.04699548610337e-05
7.85258946318928e-05
-7.81141181445626e-05
9.50160005436639e-05
-7.57138098532218e-05
0.000111015412016801
-7.32794613970576e-05
0.00012651825589997
-7.08188586814153e-05
0.000141519708639474
-6.83381456196351e-05
0.000156015672286067
-6.58411830879086e-05
0.000170002435393634
-6.33300200782845e-05
0.000183476328019978
-6.08050335301495e-05
0.000196433402539578
-5.82649277441888e-05
0.000208869113303816
-5.57067618654424e-05
0.000220777989597307
-5.31259189229568e-05
0.000232153294489211
-5.05160182041255e-05
0.000242986652760323
-4.78688055976114e-05
0.000253267646081206
-4.51739028802206e-05
0.000262983340523595
-4.2418596387115e-05
0.000272117757833444
-3.95873041361284e-05
0.000280651212928839
-3.66612654055259e-05
0.00028855957084476
-3.36174426342929e-05
0.000295813236157342
-3.04282125493823e-05
0.000302376057200679
-2.70590337213844e-05
0.000308203671436983
-2.34685423349304e-05
0.000313241787872724
-1.96037328886921e-05
0.000317423613595962
-1.54013713473682e-05
0.000320665463343143
-1.07792311184769e-05
0.00032286065675504
-5.64477603683422e-06
0.000323879279510539
1.59139715077918e-07
0.000323555817352882
6.81902836889441e-06
0.00032168027330567