/*--------------------------------*- C++ -*----------------------------------*\
  =========                 |
  \\      /  F ield         | OpenFOAM: The Open Source CFD Toolbox
   \\    /   O peration     | Website:  https://openfoam.org
    \\  /    A nd           | Version:  7
     \\/     M anipulation  |
\*---------------------------------------------------------------------------*/
FoamFile
{
    version     2.0;
    format      ascii;
    class       volVectorField;
    location    "8000";
    object      U;
}
// * * * * * * * * * * * * * * * * * * * * * * * * * * * * * * * * * * * * * //

dimensions      [0 1 -1 0 0 0 0];

internalField   nonuniform List<vector> 
15600
(
(0.102789690544719 -0.000386761386770777 -1.1580439147315e-21)
(0.124811527233218 -0.00345339246163913 -2.38677331929724e-18)
(0.0873921142118528 -0.0115173098198354 0)
(0.00485004454258774 -0.00425922441964769 -2.03307066373547e-17)
(-0.0433413341741992 0.0171981653007483 -2.39943476608022e-21)
(-0.0393953903141059 0.0223383578360496 -1.47096090901266e-20)
(-0.0266931848418294 0.0180858961296341 -4.17601951669575e-17)
(-0.0207879854845679 0.0155554686710447 4.30275951650375e-17)
(-0.0170115075230325 0.0135429582114343 -1.25959594719405e-14)
(-0.0155800912714184 0.012632625507885 -1.321899190761e-14)
(-0.0144986313733773 0.0116795734312332 1.22194187713696e-20)
(-0.0142125371843571 0.0112659787069358 -2.56753050952458e-20)
(-0.0142155655759991 0.0111329212299805 2.70107769681199e-20)
(-0.0147058995999576 0.0114172108845046 -5.77053809338144e-17)
(-0.0158614001016212 0.0122289930679794 -6.00431984772076e-17)
(-0.017787733939179 0.0136145905540659 -6.06032341822832e-20)
(-0.0202248736891415 0.0153148518612038 -6.38295858082847e-17)
(-0.02293510561067 0.0169476919405292 1.32023021708775e-16)
(-0.0258995129719674 0.0183519285071479 -6.81849173689244e-17)
(-0.0288982047866164 0.0192535370346257 -7.10730145456345e-17)
(-0.0315826123565663 0.0193360337607024 7.37744584330759e-17)
(-0.0339959283055888 0.0185463565665306 -7.65708768953805e-17)
(-0.0364178126283485 0.0171454379987792 -2.98411944359957e-22)
(-0.0386113280144456 0.0151460539519539 8.12627056177696e-17)
(-0.0403611588587319 0.0125212715354248 0)
(-0.0415839845570498 0.00934105034492299 0)
(-0.0411684826358476 0.00555221718620868 -6.1802447490905e-15)
(-0.0451297950298042 0.00200625258909289 -6.18490460046775e-15)
(-0.0576048312084176 0.000467787752575042 1.91821631559343e-23)
(-0.0683910511962539 0.000473160958290442 5.57884282813812e-31)
(-0.0745339922647567 0.000466235921889088 0)
(-0.0785735019943097 0.000458361385319774 -6.44067186694763e-15)
(-0.0809842941309448 0.000452749417675933 -6.50329016890074e-15)
(-0.0822481961883848 0.000442339699534004 0)
(-0.0825541278555693 0.00042836167774568 0)
(-0.0820732130566488 0.000411180072639345 0)
(-0.0809290399808962 0.00039221008846899 0)
(-0.0792177363222076 0.000371385316974898 -7.58850377845359e-20)
(-0.0770184766254068 0.000349323607147178 6.31640011320589e-15)
(-0.074403285282734 0.000326526446622777 6.44077440779414e-15)
(-0.0714371569496335 0.000303460007370355 -7.74697817648474e-20)
(-0.0681801138028901 0.000280519939072263 -7.88142998365316e-20)
(-0.0646873101987046 0.000258027135915433 7.92724542053071e-20)
(-0.0610092556148333 0.000236236491972093 -8.07373606848938e-20)
(-0.0571918665421748 0.000215336326627243 8.13244543617066e-20)
(-0.0532764861560047 0.000195460977377872 0)
(-0.0493000056556769 0.000176695199347952 -7.22955962278668e-15)
(-0.0452949905196058 0.000159084657406365 -7.37728750003507e-15)
(-0.0412899019669657 0.000142641798771074 -8.61331678274881e-20)
(-0.0373093392114386 0.000127353888498219 4.35702040848806e-20)
(-0.0333743296591972 0.0001131879697952 -4.4381337599869e-20)
(-0.0295026308506533 0.000100096831214557 8.98000332012195e-20)
(-0.0257090492499225 8.80225682734942e-05 -7.56971538014806e-15)
(-0.0220057568925162 7.69008271110687e-05 -7.69939636921496e-15)
(-0.018402595235937 6.66625997359189e-05 -2.33360039124098e-20)
(-0.0149073845406739 5.72420623968351e-05 0)
(-0.0115261747323354 4.85560861040147e-05 1.39664154830278e-30)
(-0.00826354038317168 4.03345306636211e-05 -1.21680414096442e-20)
(-0.0051227849499063 3.18988207690996e-05 1.84377968575937e-20)
(-0.00210618876831889 2.34751378607442e-05 -6.21382442560605e-21)
(0.000784770934349298 1.59648033215598e-05 0)
(0.00354940906462276 9.36739709509641e-06 1.25359480410096e-20)
(0.00618752403467466 3.31796042471592e-06 -1.24784777640243e-20)
(0.00869921325836896 -2.31850558436248e-06 1.4521876730931e-30)
(0.011084871352676 -7.59618570058897e-06 0)
(0.0133450117258157 -1.25700650324639e-05 -2.49114092126426e-20)
(0.0154801778332004 -1.72911692986365e-05 2.48296492912654e-20)
(0.0174908364722998 -2.18076484371449e-05 0)
(0.0193772916532462 -2.61652811460427e-05 0)
(0.0211395825981344 -3.04076263152757e-05 0)
(0.0227774034760175 -3.45775292307201e-05 0)
(0.0242899820007963 -3.87161600445745e-05 0)
(0.0256760073746482 -4.28664018641387e-05 8.3018886693155e-15)
(0.0269334477274301 -4.7069158956451e-05 1.6565468306303e-14)
(0.0280595080988939 -5.13716226453616e-05 8.26180635568267e-15)
(0.0290502930010686 -5.58160288703831e-05 -1.99352759981175e-19)
(0.0299008813015713 -6.04612709652753e-05 9.97558825138567e-20)
(0.0306045967706334 -6.53504207220294e-05 -1.00146374536133e-19)
(0.0311534984233798 -7.05696368796104e-05 1.00211774062973e-19)
(0.0315365704568165 -7.61579013904425e-05 8.4200380198007e-15)
(0.03174197874203 -8.22784580820011e-05 8.36558454799223e-15)
(0.0317518934054398 -8.89447711817384e-05 -1.01225251017888e-19)
(0.0315511945993426 -9.6429138099804e-05 1.01830588578082e-19)
(0.0311114231531366 -0.000104585766208977 -2.04432015458029e-19)
(0.0304060249955133 -0.000114076357396051 1.02674215127771e-19)
(0.0293782146994564 -0.000124275284078273 -2.07075630424171e-19)
(0.0279906390664166 -0.000136924829743285 4.1681838207104e-19)
(0.0261319297450507 -0.000150032240061379 -2.10007630278488e-19)
(0.023762331911226 -0.000168310248777956 -2.12703284375327e-19)
(0.0206311567876861 -0.000185216960331384 4.30239498723215e-19)
(0.0167644604821129 -0.000213407876597526 0)
(0.0113154376083931 -0.000226829733803987 -2.71858268819591e-23)
(0.004361922346952 -4.15147158443939e-06 0)
(0.00340782047505964 0.000424546286340518 2.29436755389684e-19)
(0.00590665186895671 0.00157375311930617 -5.80945557932387e-17)
(0.00823115529924865 0.00297668148560699 -6.12521486909608e-22)
(0.0114980220835399 0.00507316079984576 -1.07551975597577e-16)
(0.0151954021711123 0.00780128075688796 -1.0361590599192e-16)
(0.0195458685797754 0.0113274560702316 9.84603930985717e-17)
(0.0250200886850994 0.0158625107403956 -9.33765683605538e-17)
(0.0312484224294412 0.0211049577108241 8.86356293056935e-17)
(0.0379566404897214 0.0267583397504429 8.42838635348523e-17)
(0.0450339199858199 0.0326151266549189 0)
(0.0524874479748977 0.0384976661745417 0)
(0.0592100972483331 0.0436315360560953 -7.3684275004318e-17)
(0.0647972045494815 0.0480902886795978 -7.06625806462073e-17)
(0.0701639809030283 0.0526344679928241 -6.75434656190633e-17)
(0.0757731848131304 0.0576381411108916 -6.42564991260447e-17)
(0.0822007610451609 0.0635456335141512 -6.07555696004048e-17)
(0.0906405308439285 0.0712431779793098 5.6848822988534e-17)
(0.104416980327128 0.0824603783453229 5.25707180996589e-17)
(0.124530007269177 0.0960511534204497 -4.84170149307086e-17)
(0.150272225839178 0.109889418051583 4.42923769866969e-17)
(0.186800020594609 0.124083401845344 4.01038568176877e-17)
(0.235206380982447 0.133086558540251 -3.57336952243321e-17)
(0.289501828690015 0.123364028728027 0)
(0.278825084959532 0.0721321474924424 1.42899831537526e-17)
(0.195997481414161 0.022727539391514 0)
(0.108821616000946 0.00206659155468156 -2.07047921402788e-18)
(0.0821213652201543 -0.000599457868066049 0)
(0.330155460518933 -0.00164836829326429 0)
(0.360783686592722 -0.00856448376087001 -7.08494851794802e-22)
(0.294170038847359 -0.0304176085810463 -4.84355804231697e-21)
(0.0977234942670273 -0.02132833306122 1.6946846984111e-14)
(-0.074242214878287 0.0378325160750306 1.89726391613037e-14)
(-0.0925893458271135 0.0575530279255586 -5.88151088987033e-17)
(-0.0670241684434272 0.0485136419472376 1.82215001892521e-23)
(-0.0536532569153523 0.0426755169991541 -6.20620597679336e-17)
(-0.0451922450585856 0.0379245183223795 1.84311129902199e-14)
(-0.0420120150777369 0.0357363545581128 1.92208796114661e-14)
(-0.0399819188760875 0.0334640105115352 -3.53833226549866e-20)
(-0.0398135955723742 0.0325642890754568 3.71766985561607e-20)
(-0.0405225979540746 0.0325011774688322 -3.8585210213015e-20)
(-0.0425560509060016 0.0336454385951741 -8.15494949113702e-17)
(-0.0462851475345718 0.0362507659986012 1.66253222576987e-16)
(-0.0517480612971723 0.0403157246167127 -8.17832023864589e-20)
(-0.058292990632937 0.0450926670735031 8.40524546912756e-17)
(-0.0654235945069484 0.0495505285192485 -8.40743855173901e-17)
(-0.0729949828469032 0.0531676062025511 1.62756138080172e-19)
(-0.0805286787519992 0.0552055109689458 -1.61839553534424e-19)
(-0.0875379870183922 0.0549756756693855 -8.18565924044735e-17)
(-0.0942082246804761 0.052409179193345 8.09574074060643e-17)
(-0.100796253803608 0.0480602318522842 7.96808453610012e-17)
(-0.106795411619721 0.042023383493794 -1.52098930859758e-19)
(-0.111856242976708 0.0343559893093581 3.81661192220821e-17)
(-0.116111424788193 0.0253617660237571 -3.74542342603457e-17)
(-0.120622863068986 0.0154609613302929 5.32251232084909e-15)
(-0.13306521032385 0.00638540384444712 4.92813263046044e-15)
(-0.153823652919632 0.00215650972395671 -2.9646217093686e-23)
(-0.168525559704662 0.00140843463811527 -4.17642074462445e-31)
(-0.175748690114689 0.000833506413132425 0)
(-0.179411633124446 0.000481254446586744 4.70827145791732e-15)
(-0.180378249788987 0.000232586574326527 4.55797769072605e-15)
(-0.179434998519687 3.93806110472652e-05 2.09160527747192e-19)
(-0.176946728191395 -0.000116822341309232 -1.03037760022416e-19)
(-0.173224050095063 -0.000246622025798214 -1.02881213326584e-19)
(-0.168466484599055 -0.000355995210773969 1.01869529996709e-19)
(-0.162843607221749 -0.000449150770732431 7.43404094870722e-31)
(-0.156492941745373 -0.000528209753338991 -4.29019783718056e-15)
(-0.149536181733047 -0.000594691168370566 -4.26743725430241e-15)
(-0.142080398736549 -0.000649774485005802 0)
(-0.134221875146325 -0.000694456666097468 5.25917515354989e-20)
(-0.12604706719296 -0.000729672368377249 3.15432296103447e-22)
(-0.117633665969797 -0.000756300112284328 -5.36063289544452e-20)
(-0.109051233352078 -0.000775197337710194 -5.47153961862396e-20)
(-0.100361723078292 -0.000787184867629896 1.10892083597395e-19)
(-0.0916200077437184 -0.00079305253963196 4.89959081737304e-15)
(-0.0828743431558777 -0.00079354623068762 4.95634948832368e-15)
(-0.0741668794374176 -0.000789366199977823 5.84064115269883e-20)
(-0.0655341465256904 -0.000781159772062188 0)
(-0.0570075554154052 -0.000769521020795951 -3.05444403842689e-20)
(-0.0486138830823155 -0.000754987328979065 3.10586666172326e-20)
(-0.0403757521359481 -0.000738041379246505 5.3072608233794e-15)
(-0.0323120903826533 -0.000719110855600512 5.40539298806477e-15)
(-0.0244385587353958 -0.000698572124599627 -1.66499556311187e-20)
(-0.0167679821467827 -0.000676752183298188 -6.02721772545811e-23)
(-0.00931070672376575 -0.000654089081996309 -5.89695784293374e-23)
(-0.00207503831904309 -0.000630908886997872 1.77189736818534e-20)
(0.00493261106614768 -0.000606936550370589 -4.47916435143311e-21)
(0.0117074077432572 -0.000582305319313988 4.45765177395774e-21)
(0.0182455388365857 -0.000557292265044064 -4.46511528909819e-21)
(0.0245442068720134 -0.000531946518685371 4.44936485097783e-21)
(0.0306014168671589 -0.00050654329327476 1.78406804260931e-20)
(0.0364156471438854 -0.000481180365553315 -1.77982366612591e-20)
(0.0419857586284305 -0.000455886692367305 0)
(0.0473107509400951 -0.000430678395454439 0)
(0.0523896123242318 -0.0004055521614365 0)
(0.0572211416071863 -0.000380486989610213 0)
(0.0618037901143935 -0.000355444550000729 0)
(0.0661354763310404 -0.000330368103882418 0)
(0.0702134214134164 -0.000305183783497077 0)
(0.0740339192790924 -0.000279795553813188 7.25980108361499e-20)
(0.0775921602349562 -0.000254088944730293 -6.04593519870664e-15)
(0.0808818903316972 -0.000227917640388239 -1.21884484940884e-14)
(0.0838952367300825 -0.000201115594110544 -6.14919289361528e-15)
(0.0866221124670879 -0.000173462771744457 -1.48002731300629e-19)
(0.0890501300577661 -0.000144723465028101 -1.36636005447449e-22)
(0.0911634009225657 -0.000114557319148097 7.49695828803109e-20)
(0.0929428771984593 -8.2634325270999e-05 7.57229596965793e-20)
(0.0943635657375502 -4.84184995671423e-05 -6.32641068758998e-15)
(0.0953969441499194 -1.1450985465824e-05 -6.45758605989512e-15)
(0.0960010690701936 2.88443898367226e-05 7.79487171714378e-20)
(0.096139215605736 7.27237805027513e-05 0)
(0.0957523218056931 0.000122616464051504 1.59992721837841e-19)
(0.0947717868813667 0.000179420202316242 -1.61929678833401e-19)
(0.0930778611316591 0.00024757647427678 -1.64883147632523e-19)
(0.090563888186882 0.000326718697339188 1.676411504702e-19)
(0.0869991146797721 0.000427189677378959 0)
(0.0822222195892703 0.000545488513434673 0)
(0.0757197893326204 0.000708765002606141 1.82113670599593e-19)
(0.0672814643474313 0.000914791693461445 -5.13201548618518e-22)
(0.0552271712419184 0.00122728541543641 1.99971497576565e-19)
(0.0398345270472653 0.0023389459511472 0)
(0.0351927499390845 0.00424121716473816 -1.65754623709215e-22)
(0.0383802005383099 0.00795703276746184 0)
(0.0429640781756938 0.0125100107277283 5.14101869778378e-17)
(0.0492912665944734 0.0185091092149538 -9.83507665643198e-17)
(0.0567857562976595 0.0259328891712555 -1.83704390428174e-19)
(0.0656755344304978 0.0351016068707495 1.74599670663046e-19)
(0.0767654514004139 0.0464046211974273 1.65965583999039e-19)
(0.0896367654935571 0.0593286790500582 -8.10877303870154e-17)
(0.103905022109736 0.0732766701820058 -1.61842815358248e-19)
(0.119325488109756 0.0878030531998186 -7.38652102513021e-17)
(0.135909300538815 0.102522761798792 0)
(0.152002677078522 0.116079868864799 0)
(0.16651018622106 0.128476231542177 6.72644808496787e-17)
(0.180290227849459 0.141059590441732 6.53811150955092e-17)
(0.194234894642443 0.154719428015235 6.33480858677336e-17)
(0.209478670198355 0.170449437592535 3.91385922384174e-20)
(0.228128676323095 0.190054644586467 -5.77547328632641e-17)
(0.256040798252107 0.216841618447058 -1.07218819257716e-16)
(0.296821216725315 0.248641832044999 0)
(0.350737954314909 0.280498624727403 0)
(0.425124166490697 0.310440149888072 -3.85656673286814e-17)
(0.522577442170178 0.326307714257957 -3.28378831523629e-17)
(0.638324766544383 0.30316673040636 2.84230523505994e-17)
(0.677520807536725 0.199470644722262 -1.25261984654061e-17)
(0.583498833010113 0.0823460349001948 0)
(0.419149474511079 0.0161126306317074 0)
(0.328255704242862 -0.000145747463619645 0)
(0.519634819196954 -0.00159413804359019 0)
(0.53437231233943 -0.0117226216287073 1.5026809298415e-18)
(0.473172159314909 -0.0437264431180448 0)
(0.238965194746405 -0.047013263052289 -1.10257725376179e-14)
(-0.0479814957085819 0.0333050897124752 -1.47650773917818e-14)
(-0.122371688713807 0.0764062558807911 5.380767060491e-17)
(-0.0964364793278789 0.0686711106054981 0)
(-0.0795725582306743 0.0624891299812564 6.8966345139589e-21)
(-0.0687309145200357 0.0572109178205232 -6.03515810864165e-17)
(-0.0647317390068734 0.0547716319872442 6.38855881182058e-17)
(-0.0625519243644321 0.0521882194639328 8.76148548072755e-23)
(-0.0629212502943449 0.0514040009015787 -3.38514065559762e-20)
(-0.0646775636149595 0.0519152986382288 0)
(-0.0683757445782534 0.0542315779462255 7.14681181294956e-17)
(-0.0743782238142933 0.0585690319376867 -8.99731207937164e-22)
(-0.0824387303325354 0.0646585269818716 -6.7176939323615e-20)
(-0.0915365257412494 0.0712937085179181 6.4533535626447e-20)
(-0.100961072969098 0.0769570692891441 0)
(-0.110364293177773 0.0808354749315913 0)
(-0.119174440965331 0.0820654457547946 0)
(-0.127050129922695 0.0800762783925096 0)
(-0.134362455696691 0.07500168480571 -5.05448881056042e-17)
(-0.14133755641258 0.0676310686352338 -4.75527956473899e-17)
(-0.147595819001629 0.0582996642401649 8.82816867421313e-20)
(-0.153100381591618 0.0472628179186892 -8.83339467911919e-20)
(-0.158397655795342 0.0349993668937002 4.11607587762666e-17)
(-0.165053702867437 0.0219740766993024 1.95359376065691e-17)
(-0.178555558556777 0.00981552519470148 7.05508331021227e-20)
(-0.195844975454774 0.00386129264921526 1.56648238913772e-23)
(-0.206250651420647 0.0023302336552876 0)
(-0.210551715236392 0.00123097883015171 0)
(-0.211739732045352 0.0005571275350179 0)
(-0.210475245786026 7.28440870399286e-05 0)
(-0.207449684646614 -0.000299878798090268 0)
(-0.202995494702583 -0.000600049799501024 0)
(-0.197377847382462 -0.000848415619625942 0)
(-0.190777351544502 -0.00105702385010884 0)
(-0.183355105052466 -0.00123329815670605 0)
(-0.175242990942334 -0.00138177153166311 2.45315484916184e-20)
(-0.166558577766475 -0.00150559406840138 -2.43233215446607e-20)
(-0.157405789964706 -0.00160728367338535 2.44848264118227e-20)
(-0.147878314648915 -0.00168893802141079 -2.43995956497167e-20)
(-0.138060424824003 -0.0017524814661256 0)
(-0.128027956005155 -0.00179968679856769 0)
(-0.117848890552619 -0.00183224345904593 2.50221547136898e-20)
(-0.107583857027033 -0.00185174385546889 1.36405045559542e-22)
(-0.0972866302271533 -0.00185969654290184 -2.54014367417308e-20)
(-0.087004579916705 -0.00185751225050573 0)
(-0.0767791606559561 -0.00184650356279129 0)
(-0.0666463799582615 -0.0018278773229119 0)
(-0.0566372799915363 -0.00180273563819726 0)
(-0.0467784054082609 -0.00177207297827663 0)
(-0.0370922653406102 -0.00173678031859349 1.38952569600308e-20)
(-0.0275977777410513 -0.00169764677676572 -1.40722438702713e-20)
(-0.0183106828734055 -0.00165536627659381 -7.18477170551614e-21)
(-0.0092439673170581 -0.00161055922413232 -2.58866620664458e-23)
(-0.000408194410438455 -0.00156372001551279 -2.5129256436047e-23)
(0.00818810963830844 -0.00151509962559108 7.45858155612809e-21)
(0.0165381850046934 -0.00146476318839695 0)
(0.0246367204867406 -0.00141327078715018 0)
(0.0324795081427113 -0.00136121054842112 0)
(0.0400633614423972 -0.00130875263179745 0)
(0.0473857882323724 -0.00125605919494446 7.70544364815539e-21)
(0.054444742469586 -0.00120321621688928 1.96320550713141e-23)
(0.0612385147311094 -0.00115026928990349 -7.79587133143294e-21)
(0.0677654947893194 -0.00109723205363248 0)
(0.0740240119686504 -0.00104408024363423 -1.58709590920013e-20)
(0.0800121516269126 -0.000990753692318659 1.59647584834513e-20)
(0.0857275875865633 -0.000937156022157713 -1.61349658865225e-20)
(0.0911673888310745 -0.000883152336368184 -3.38283743783427e-23)
(0.0963278398986628 -0.000828568902684859 -1.64571734337422e-20)
(0.101204201515346 -0.000773184964568025 3.30919712393681e-20)
(0.105790508364567 -0.000716733565168963 0)
(0.110079221430884 -0.000658881612343911 0)
(0.114061004194288 -0.000599237647884956 3.41862559639602e-20)
(0.117724135970902 -0.000537304236014935 6.39747585063013e-23)
(0.121054319575394 -0.000472511409727798 -3.49114374950911e-20)
(0.124033546503166 -0.000404099446278837 -3.54102589919939e-20)
(0.126640178531659 -0.000331232019723439 3.5811936639551e-20)
(0.128846442892271 -0.0002527279917168 -3.63823446968311e-20)
(0.130619832103171 -0.000167296561608958 -6.78630538770073e-23)
(0.131916732901213 -7.33580937290994e-05 3.74692149382291e-20)
(0.132689559722579 3.02929131932284e-05 7.63674863208536e-20)
(0.132870228993928 0.000148053261264723 1.49911306400587e-22)
(0.13238143221868 0.000283414594205841 -7.88867909455696e-20)
(0.13109761050896 0.000444767512133571 0)
(0.128893713876588 0.000635915817307117 -8.24440002654424e-20)
(0.125529688579886 0.000875267879235238 8.43856298896778e-20)
(0.120802599610573 0.00116867685935296 8.71383577922602e-20)
(0.114182747881661 0.00156182038403927 -9.00462236414949e-20)
(0.105358480763714 0.00208901691718436 0)
(0.0927471627349129 0.00283665598854329 0)
(0.0760530476658365 0.00494307939277201 3.42742834453851e-18)
(0.0685141125123571 0.0085707244143431 2.77807176637095e-17)
(0.0697037081848407 0.0143037039782879 1.03922572551789e-19)
(0.0737481780156091 0.0210978287505752 -2.53172912548275e-17)
(0.0801873431535568 0.0295134289190847 1.53968059072935e-21)
(0.0883874681015242 0.0395515209221529 0)
(0.0984771985872911 0.0515625470626493 0)
(0.1112176587793 0.0658608157748671 8.36439889179817e-20)
(0.126381127495965 0.0819939750674326 -8.05316453432344e-20)
(0.143596309379829 0.0993654696485842 6.85956170216136e-20)
(0.162593891367304 0.117527409329934 3.86815872413218e-17)
(0.18334086863468 0.136049441223872 -3.77622768936361e-17)
(0.204378268762959 0.153836015439856 0)
(0.224384594419261 0.170954957701615 -3.58415418612904e-20)
(0.243922305224922 0.188685521529196 3.57156729998833e-20)
(0.263894296248165 0.207972948277884 0)
(0.285523561875304 0.229888274575338 3.53686061039729e-17)
(0.310979963493551 0.256170057235194 0)
(0.346255754763346 0.289468211311084 3.21017127116165e-17)
(0.396306774590753 0.32719487054994 -3.53779042046209e-21)
(0.461804370606103 0.363427035991835 3.33381588090716e-21)
(0.548881458055167 0.393549895909029 2.32420618918614e-17)
(0.659454325297743 0.40308747728253 1.95565405781046e-17)
(0.789862307528879 0.366706936877449 -3.36229511879456e-17)
(0.865502974008752 0.25155249871107 7.73629200505592e-18)
(0.817451079371036 0.118364944502633 0)
(0.669455039563647 0.0311716547286186 1.17139248226619e-18)
(0.552023206502351 0.00347016773881814 -6.67370790352142e-22)
(0.640354563595872 -0.000470111626342219 4.64998776023163e-22)
(0.639126549289009 -0.0132145930331368 -4.60629776161224e-22)
(0.589896297496439 -0.0503525689664653 3.87302351518735e-18)
(0.370862168384512 -0.0678264798168213 0)
(0.0247436900460465 0.0125418295451591 -3.06462722019534e-17)
(-0.123685299639874 0.0798155395587052 -4.19837267146826e-17)
(-0.111712431398171 0.0782999750668823 0)
(-0.0957431377420556 0.0741458381711354 0)
(-0.0849819864032706 0.0701336273353154 4.80863809886082e-17)
(-0.0812584651466857 0.0684063587386231 -5.13271245265988e-17)
(-0.079657422959152 0.0662851900654505 5.34257642754065e-17)
(-0.0807923141842476 0.065979420695368 -2.66541805597154e-20)
(-0.083505783811305 0.067144672243392 0)
(-0.0882851489581632 0.0703067727016312 -5.38461805218583e-17)
(-0.0952929117391922 0.0754831699973068 -5.15640070363859e-17)
(-0.103981427389914 0.0821102683290507 4.72826328724448e-20)
(-0.113189105909229 0.0887594945547162 -4.49494925274043e-17)
(-0.122275163832978 0.0938147991940651 -4.121699158764e-17)
(-0.130957666149398 0.0965102938735728 3.7842759872774e-17)
(-0.138875841321691 0.0961845809664978 -3.46362595167021e-17)
(-0.145940546084884 0.0925121751962894 0)
(-0.152623337819989 0.0857258732045372 2.94999617366436e-17)
(-0.15908711652674 0.0766435765330731 5.3734957612073e-20)
(-0.165039392233103 0.0656833089313931 -2.58675135058192e-17)
(-0.170564394810387 0.053155025955386 -1.22170501151482e-17)
(-0.176222276981184 0.039560660028801 -1.17874024967021e-17)
(-0.183250786364854 0.0253380946527199 -5.51367524917362e-18)
(-0.195535971367654 0.011943006124341 1.28022493296545e-18)
(-0.209274224143453 0.00511228482982759 -8.85620845082868e-24)
(-0.216882698818534 0.00294012067945114 -3.3715233319387e-20)
(-0.219613887289395 0.00142142695450767 -3.18895864753139e-20)
(-0.219592441290107 0.0004754451403304 0)
(-0.21733974872667 -0.00021481480096669 0)
(-0.213449236831938 -0.000746293893086603 -2.88422502568238e-20)
(-0.208200251992521 -0.00117615425118319 2.79611334862791e-20)
(-0.201840405380061 -0.00153255399703681 -2.75905750486572e-20)
(-0.194538444709492 -0.00183206569157023 2.70102718354381e-20)
(-0.186446072078622 -0.00208456888511503 0)
(-0.177689212579583 -0.00229666572514514 0)
(-0.168380878831102 -0.00247290266190064 0)
(-0.15862157672414 -0.00261698070065318 0)
(-0.148502238438033 -0.00273198486724998 1.32280080599331e-20)
(-0.138104911252144 -0.00282073955776502 -1.31719411236365e-20)
(-0.127503598289388 -0.00288584060312469 -1.3296391568568e-20)
(-0.11676477085484 -0.00292974838715974 2.66527583600351e-20)
(-0.105947813806256 -0.0029547755026934 -1.33776794558786e-20)
(-0.0951054827018023 -0.00296310399304767 0)
(-0.0842843214072438 -0.00295677034946526 0)
(-0.0735251228455619 -0.00293766501262722 0)
(-0.0628633745235075 -0.0029075244312928 0)
(-0.0523297191774114 -0.00286793252309765 -7.05993377981006e-21)
(-0.041950405074451 -0.00282031831018437 -1.60394116129796e-15)
(-0.0317477318334036 -0.00276596157312929 -1.6319666313782e-15)
(-0.0217404811369752 -0.00270599646044203 -7.307557460421e-21)
(-0.01194431949211 -0.00264142073280981 -7.43822180642283e-21)
(-0.00237219980238531 -0.00257310943311638 7.5112016782287e-21)
(0.00696529798173227 -0.00250171512166732 0)
(0.0160595799561428 -0.00242778090529172 0)
(0.0249037914971594 -0.00235191558348943 0)
(0.0334925281839596 -0.00227468264220131 0)
(0.0418214825192469 -0.00219644680057422 0)
(0.0498873281209623 -0.00211746246232805 0)
(0.0576874162666492 -0.00203795088662751 0)
(0.0652195431230165 -0.0019580415871718 0)
(0.0724818273128821 -0.00187780349083723 0)
(0.0794724818133697 -0.00179725359819941 0)
(0.0861896518283679 -0.00171635281401729 -8.30906515595678e-21)
(0.092631232647842 -0.00163500785151899 1.89433218957909e-15)
(0.0987947013191459 -0.00155307037829695 1.90587074186784e-15)
(0.104676925483934 -0.0014703337341474 -8.55640870691687e-21)
(0.110273981854697 -0.00138653081747685 1.73382864403877e-20)
(0.11558092203172 -0.0013013235543777 -1.75005756219344e-20)
(0.120591565116443 -0.0012143000049264 1.7740279839187e-20)
(0.125298163971162 -0.00112495002269996 -1.79197338301676e-20)
(0.129691166892349 -0.00103266612113726 0)
(0.133758668488902 -0.00093668816041858 1.84115698925569e-20)
(0.137486174723783 -0.000836124209128704 -1.8623916413938e-20)
(0.14085557028792 -0.000729820387947207 0)
(0.143845068551796 -0.000616450206611564 0)
(0.14642701072624 -0.000494227040525052 0)
(0.148568688046678 -0.000361108713069059 0)
(0.150227604166275 -0.000214601557054803 0)
(0.151352601618036 -5.22881010065657e-05 0)
(0.151876998325036 0.000132001625023274 0)
(0.151723309939338 0.000344170472146588 -4.26256773361803e-20)
(0.150772017815824 0.00059582239684461 8.69397219133715e-20)
(0.148899162393686 0.000895315371023897 -8.89515452852782e-20)
(0.145879914989553 0.00126741282304118 4.55893606215646e-20)
(0.141512380328021 0.00172850193459454 0)
(0.135315047850403 0.0023375763879827 0)
(0.126977079849884 0.0031634372178233 0)
(0.115225476325961 0.00431749806230041 -5.40714860801851e-20)
(0.0994094237961455 0.00709384046533449 -3.61961734723333e-18)
(0.0906477245297931 0.0117434178807968 -7.36657899472824e-18)
(0.0902373822037649 0.0185128001457856 1.40914911648875e-17)
(0.0933462931021017 0.026442933658542 5.23686252071538e-20)
(0.0992818658868952 0.0360434760590256 5.10505330691093e-17)
(0.107330936753367 0.047298971188538 -4.79083877806755e-20)
(0.117538368122861 0.0605400064136703 4.59003893604899e-20)
(0.130552507724903 0.0759873989051021 2.2612724002725e-17)
(0.146245399552227 0.0932430256682271 -2.17798299572592e-17)
(0.164272648128285 0.111756831230762 -2.11617037003359e-17)
(0.184373097773607 0.131115464369007 -4.01051809697602e-20)
(0.206466171284011 0.150895308892063 4.8722090199955e-20)
(0.229289879684494 0.170259469081251 -1.94449031135981e-20)
(0.251555154249567 0.189378811279146 3.88647583976848e-20)
(0.273688430428611 0.209439658639934 -1.98765699908526e-17)
(0.296533366091302 0.231341917467406 1.92262586956106e-20)
(0.321292711431928 0.256120067474386 -1.96008813818039e-17)
(0.350045663724663 0.285283708975971 -9.22543442830892e-21)
(0.388324821858108 0.32063874416953 8.9041124735818e-21)
(0.441361594146244 0.35926617858015 2.00116856340003e-21)
(0.509983522947048 0.39501458739828 -1.89349247260828e-21)
(0.599276884728826 0.422046088335472 0)
(0.710395555401051 0.425478186926159 0)
(0.839701434603363 0.381556316867146 -2.63429194255705e-20)
(0.926483232933455 0.264926625382909 -4.55195229314323e-18)
(0.911646001820169 0.132433234316434 0)
(0.802635099924203 0.0403713269904544 -7.36114059880392e-19)
(0.690354673269147 0.00751149080996876 0)
(0.715588118651711 0.00126290734288492 0)
(0.704695410606646 -0.0135255677550558 6.44006528445495e-19)
(0.663025539644572 -0.0523504702636562 5.81069054640423e-21)
(0.474926198129724 -0.0802756847922428 1.72928486827529e-21)
(0.115798858661107 -0.0127215421406781 2.10994250573795e-17)
(-0.100955576325335 0.0719893859621128 2.92232033922296e-17)
(-0.114424731057673 0.0796749454459621 0)
(-0.102409308923746 0.0783512650326272 0)
(-0.0930312772290134 0.0762420163935103 3.29700772989574e-17)
(-0.0902175862332915 0.075709534460491 3.54443709129221e-17)
(-0.089521870248705 0.0744409215951606 -3.68467909011611e-17)
(-0.0913935938396663 0.0747426930902771 0)
(-0.0947499382743457 0.0764340805095467 -3.74652075678748e-17)
(-0.0999620119742681 0.0800192345065794 5.83460464467125e-22)
(-0.107042203036331 0.0853544360373097 -3.43928463904363e-17)
(-0.11536929396859 0.0917651414393063 3.17915984996717e-17)
(-0.123904156484064 0.0978624545219429 2.87306735782828e-22)
(-0.132204617221484 0.102136749231222 2.63466811340465e-17)
(-0.140094687288149 0.103918430585519 -2.39226569094284e-17)
(-0.147357529940899 0.102678732903166 4.56810653424531e-20)
(-0.153985667937183 0.0981849435849038 -3.91402199237215e-20)
(-0.160407057598889 0.0906448133043465 0)
(-0.166708486208829 0.0808272465340923 1.74042667192685e-17)
(-0.172635921994062 0.0691761393318403 1.64293180141744e-17)
(-0.178289288910383 0.0560263404308156 0)
(-0.18414179634004 0.0418868382774635 -7.49328152380141e-18)
(-0.191079319711047 0.0272276026746678 2.78840939743696e-20)
(-0.202005024531739 0.0134220134825622 -8.51302298019753e-19)
(-0.213307166373398 0.00612167415263578 2.85786405659056e-24)
(-0.219292556174558 0.00340470574176642 -2.17245652919791e-20)