# Residuals            
# Time                 	Ux                     	Uy                     	p                      	k                      	omega                  
1                      	9.999999997080066e-01	1.000000000000000e+00	1.000000000000000e+00	9.999999999966606e-01	1.683172185667007e-01
2                      	8.037585945893938e-01	8.599837670759347e-01	9.368087156496783e-01	9.421763501540372e-01	2.751043568839360e-01
3                      	1.656731957042125e-01	1.375280814047595e-01	9.393054553151875e-01	1.336716379315917e-01	3.247164681865022e-01
4                      	4.681258337605006e-01	5.943137520266655e-01	8.018161266160087e-01	3.719419553621507e-01	1.917653980941908e-01
5                      	3.763774659759633e-01	3.866135896839778e-01	9.091138629207184e-01	3.316019651910078e-01	1.114836346834849e-01
6                      	4.247700018561100e-01	4.833029361199520e-01	6.782040195413752e-01	2.303392806570290e-01	1.418188962474073e-01
7                      	4.410375613728942e-01	5.332924503922183e-01	8.764876530865464e-01	4.090054452526152e-01	1.476229414460984e-01
8                      	3.058009600233380e-01	2.874850202883046e-01	8.481754150310828e-01	3.210085888523412e-01	1.477847874905160e-01
9                      	4.245539278538636e-01	4.583879804449800e-01	7.159724182760260e-01	2.482757863707435e-01	1.530899684337499e-01
10                     	3.861468053067978e-01	4.001892008183857e-01	8.589805490257908e-01	3.258960592918768e-01	1.384742314664812e-01
11                     	3.462406423455398e-01	3.439559595362985e-01	7.706842049900242e-01	2.443427308473044e-01	1.240948663728603e-01
12                     	3.814099082517883e-01	4.657325720962994e-01	7.522467282645516e-01	2.686734409990593e-01	1.258657123604289e-01
13                     	2.875215550217703e-01	3.575692518041571e-01	7.987803674029528e-01	2.241370039307559e-01	1.170402607877839e-01
14                     	2.650295195494942e-01	2.994518764203555e-01	7.219450490861398e-01	1.584076891580222e-01	9.204633176347371e-02
15                     	2.532390572966274e-01	3.402228106377955e-01	7.460682412765313e-01	1.603370854576526e-01	6.798754148818345e-02
16                     	2.150649449950597e-01	2.725306125069341e-01	7.528197835649925e-01	1.171903914538424e-01	4.202685117021566e-02
17                     	2.058391122638578e-01	2.436413052104911e-01	7.106851649930741e-01	9.388393465878959e-02	3.348004840719915e-02
18                     	1.342974135437827e-01	2.090467089465689e-01	7.150055048914434e-01	8.334820308241929e-02	2.482006043499920e-02
19                     	1.130860346669763e-01	1.858759371244947e-01	6.933346730803659e-01	7.391346600322451e-02	1.938851184504893e-02
20                     	9.955564109324573e-02	1.553467311883535e-01	6.858952425606749e-01	6.801767365364469e-02	1.512039133138386e-02
21                     	7.481085548743466e-02	1.117175619666307e-01	7.342978165853224e-01	5.989729575154502e-02	1.189396854839872e-02
22                     	6.949190003996908e-02	1.017899164253881e-01	6.598391029704936e-01	5.663989775924080e-02	9.993461801872751e-03
23                     	6.066170444103670e-02	9.500886093448468e-02	6.268835395820924e-01	5.440329765458225e-02	9.029671840172282e-03
24                     	4.894094287027152e-02	7.178317985345041e-02	6.659544202959918e-01	5.261572305528224e-02	7.992345875276712e-03
25                     	4.506516720906003e-02	6.304534502829502e-02	6.382462077075705e-01	4.797682575424832e-02	7.370866426917808e-03
26                     	4.242585365294570e-02	5.995716040113176e-02	5.699071695918685e-01	4.680901112502331e-02	6.578239668502559e-03
27                     	3.905235414388278e-02	5.091473797412640e-02	5.490347590932826e-01	4.765525617062208e-02	6.015193417465018e-03
28                     	3.756870655949977e-02	4.640116344994805e-02	5.081317542040538e-01	4.520016053059398e-02	5.768745806993002e-03
29                     	3.596718662633930e-02	4.652874639615998e-02	4.542258681604442e-01	4.508112713911198e-02	5.239447505093939e-03
30                     	3.377169094162067e-02	4.499664693570100e-02	4.095294400666923e-01	4.254199450008250e-02	5.223527002766706e-03
31                     	3.180717753085526e-02	4.175143805188791e-02	3.853231590592669e-01	4.144727724468811e-02	4.867754654369127e-03
32                     	3.039507019430742e-02	3.995013696927090e-02	3.437917265372438e-01	3.911003217010346e-02	4.820594833792868e-03
33                     	2.944325168388395e-02	3.988322812065342e-02	3.143437071478363e-01	3.756047717896656e-02	4.535411620492698e-03
34                     	2.864804905199402e-02	3.970052401415824e-02	2.976982540906298e-01	3.753323559733499e-02	4.266406060442905e-03
35                     	2.782393986719489e-02	3.913044942879281e-02	2.852180708486026e-01	3.688881635092137e-02	4.114884930773829e-03
36                     	2.699472396309233e-02	3.798468094380282e-02	2.668521683249322e-01	3.629007701613337e-02	3.960319021802328e-03
37                     	2.626985022194515e-02	3.671407404904525e-02	2.450716917357653e-01	3.691881235217533e-02	3.708931898413763e-03
38                     	2.569376863982270e-02	3.554883434779407e-02	2.251249546093434e-01	3.571823904836258e-02	3.627911592531932e-03
39                     	2.520152448303790e-02	3.472563988119050e-02	2.094352347952017e-01	3.463067740990814e-02	3.409916795718725e-03
40                     	2.465136095330191e-02	3.432827126404563e-02	2.050193960329566e-01	3.483293357472791e-02	3.250144461806194e-03
41                     	2.404960995436219e-02	3.399989990043734e-02	2.042623494787303e-01	3.275611344059193e-02	3.135967948206469e-03
42                     	2.347524491026940e-02	3.349744636105603e-02	2.055080750250845e-01	3.243262920757914e-02	2.987445489097532e-03
43                     	2.295939700428030e-02	3.282652423234886e-02	1.996715963470579e-01	3.186592268193477e-02	2.871449089516131e-03
44                     	2.248680144522113e-02	3.210321388643919e-02	1.932037642282273e-01	3.286104439461521e-02	2.776330774864099e-03
45                     	2.201104595730282e-02	3.154535599970296e-02	1.880666586276719e-01	3.155478080973561e-02	2.716997761992723e-03
46                     	2.159222401432166e-02	3.095795532585691e-02	1.846467600325558e-01	3.030897515015803e-02	2.590400792595327e-03
47                     	2.113806789081898e-02	3.043651111255640e-02	1.766963894850469e-01	2.991808468746234e-02	2.481703174383274e-03
48                     	2.066802130648272e-02	2.985911314264979e-02	1.705070529067626e-01	2.948201462129351e-02	2.432941083510934e-03
49                     	2.029393321600143e-02	2.927197752917012e-02	1.668115515154937e-01	2.841833449989658e-02	2.362496089344935e-03
50                     	1.997263481015845e-02	2.876902936246789e-02	1.615845937547989e-01	2.828812798604699e-02	2.295002882668035e-03
51                     	1.971834400805917e-02	2.827370521565157e-02	1.583155512827172e-01	2.723900865748836e-02	2.234358116829549e-03
52                     	1.948005979288448e-02	2.778683288808298e-02	1.586902676740854e-01	2.698499872352197e-02	2.177334157544591e-03
53                     	1.922775258005667e-02	2.729961997315623e-02	1.600892585694838e-01	2.574665831568224e-02	2.106724076415780e-03
54                     	1.893652961863852e-02	2.685205470475689e-02	1.582864430136243e-01	2.544782844113155e-02	2.018822489788791e-03
55                     	1.862861110495032e-02	2.644469327938637e-02	1.541302415890497e-01	2.449282101374364e-02	1.931601335097645e-03
56                     	1.831136556972030e-02	2.598507427015954e-02	1.496456145024034e-01	2.429498772030565e-02	1.914116134294108e-03
57                     	1.802595994921052e-02	2.548652365526771e-02	1.438615566102274e-01	2.372869645215358e-02	1.877034678197943e-03
58                     	1.776930547003125e-02	2.496607071888555e-02	1.398718925097092e-01	2.283680143830772e-02	1.785339417835708e-03
59                     	1.752827238140483e-02	2.445429254936355e-02	1.353343464229423e-01	2.234927146713732e-02	1.752748728304301e-03
60                     	1.729225819478888e-02	2.398692212253092e-02	1.314117251407384e-01	2.190408635067116e-02	1.686737147384880e-03
61                     	1.704926854813925e-02	2.358326239686120e-02	1.288591282782571e-01	2.183233390390186e-02	1.658340571903351e-03
62                     	1.681776320050849e-02	2.319461999220595e-02	1.277639817701105e-01	2.086878386023509e-02	1.590308088133618e-03
63                     	1.659889663925803e-02	2.287884567516330e-02	1.257657911131016e-01	2.039453046233747e-02	1.477794095103377e-03
64                     	1.638793670765167e-02	2.257053118562575e-02	1.243944415990847e-01	2.000926837440233e-02	1.430683465161703e-03
65                     	1.618287210224800e-02	2.228286549474087e-02	1.214617720923801e-01	1.965705385153696e-02	1.390267245933904e-03
66                     	1.597736021744660e-02	2.198780449961428e-02	1.193891194386301e-01	1.928967569742474e-02	1.318428245837830e-03
67                     	1.576660306698067e-02	2.172573675734358e-02	1.178830677028168e-01	1.891153979840951e-02	1.260021173591036e-03
68                     	1.555436552824326e-02	2.143823451658772e-02	1.173566126115158e-01	1.858928140086206e-02	1.213792098722122e-03
69                     	1.535513196156044e-02	2.114309999756103e-02	1.185958303672777e-01	1.872144299957668e-02	1.193705128366227e-03
70                     	1.515489637546211e-02	2.084001614526675e-02	1.207724073474950e-01	1.794346137134586e-02	1.177299488706996e-03
71                     	1.498025668153736e-02	2.052399587078832e-02	1.214932206936058e-01	1.761484928446103e-02	1.131629161051835e-03
72                     	1.481826113677801e-02	2.018974460997640e-02	1.206808900507895e-01	1.728123991257461e-02	1.104633151122053e-03
73                     	1.467482479807089e-02	1.985328187781938e-02	1.176486269317583e-01	1.698290410473215e-02	1.079487768353620e-03
74                     	1.452285284953568e-02	1.957986315472831e-02	1.148675353972034e-01	1.671365074784043e-02	1.045484975396698e-03
75                     	1.439384206760194e-02	1.936488221409821e-02	1.134570413720408e-01	1.653011150265594e-02	1.018524527008243e-03
76                     	1.426965870434186e-02	1.914755253161172e-02	1.128388253595421e-01	1.637954647165340e-02	9.889405525499396e-04
77                     	1.416166865434651e-02	1.894244909492378e-02	1.119042992510922e-01	1.630063668236634e-02	9.535178858998735e-04
78                     	1.405769835036421e-02	1.871950994543540e-02	1.100406378195388e-01	1.619637567356218e-02	9.263601892465542e-04
79                     	1.396941213693401e-02	1.850421259404809e-02	1.104208094096481e-01	1.609380783786630e-02	9.042584309715807e-04
80                     	1.389191095990512e-02	1.833055784827895e-02	1.115052690105002e-01	1.598764541104727e-02	8.961295354671525e-04
81                     	1.380563697243978e-02	1.817306137186025e-02	1.131544384243404e-01	1.587482765847231e-02	9.048075153936734e-04
82                     	1.372217062300600e-02	1.798134929838899e-02	1.141181635065111e-01	1.576220193168179e-02	8.971818450941480e-04
83                     	1.363224410096783e-02	1.779386164771640e-02	1.130420287043321e-01	1.565902021798170e-02	8.943529761060091e-04
84                     	1.352988006445405e-02	1.761949682531228e-02	1.116177224605413e-01	1.559511183017124e-02	8.859564460895961e-04
85                     	1.343180038224461e-02	1.746666506548371e-02	1.105825534435696e-01	1.553490469271805e-02	8.665449800168597e-04
86                     	1.332992014960145e-02	1.732731562473156e-02	1.111599709790791e-01	1.545027757159647e-02	8.504055982594455e-04
87                     	1.322423660439337e-02	1.715720207822351e-02	1.108209278283067e-01	1.533111549382061e-02	8.282047649517414e-04
88                     	1.311569608473595e-02	1.698211175671978e-02	1.103070455530267e-01	1.521014688950868e-02	8.141165205571452e-04
89                     	1.299669949929397e-02	1.683838307765657e-02	1.123085022721592e-01	1.508255231669073e-02	7.873806444098180e-04
90                     	1.288752688314972e-02	1.675233549528442e-02	1.161850568520220e-01	1.494646098184725e-02	7.773025830404095e-04
91                     	1.279272486044787e-02	1.665999408498911e-02	1.188310870619915e-01	1.484310610502449e-02	7.753640158770069e-04
92                     	1.272476789635421e-02	1.653418950759255e-02	1.169657920810574e-01	1.477541187083213e-02	7.678329872164897e-04
93                     	1.263568128110570e-02	1.640081156037856e-02	1.144229009932546e-01	1.468724786847632e-02	7.590759712058647e-04
94                     	1.253750964783137e-02	1.626103378531989e-02	1.121743867517448e-01	1.458661070613460e-02	7.467587965782241e-04
95                     	1.244709527925842e-02	1.608791524603079e-02	1.099280843586136e-01	1.445434287006169e-02	7.316973998106446e-04
96                     	1.236831171032787e-02	1.586939729624772e-02	1.041777790990451e-01	1.431563084419857e-02	7.134536902655460e-04
97                     	1.226269775335540e-02	1.566561691878923e-02	9.955790051721956e-02	1.419032186419051e-02	6.957951003522770e-04
98                     	1.211925650055744e-02	1.557141253868320e-02	9.902618862667270e-02	1.406745022427611e-02	6.846439178852424e-04
99                     	1.198363348871557e-02	1.551879070684809e-02	1.026833441134039e-01	1.397709546549855e-02	6.657627563297243e-04
100                    	1.187419651670018e-02	1.542576305146359e-02	1.083999968000486e-01	1.395306514868334e-02	6.550018202242760e-04
101                    	1.178838454177778e-02	1.531774996322079e-02	1.108723591303607e-01	1.393219076861051e-02	6.480743265845331e-04
102                    	1.170412623787030e-02	1.523623662942613e-02	1.102207328725067e-01	1.390418940089005e-02	6.444704284157056e-04
103                    	1.162110647758021e-02	1.517420506909190e-02	1.091170869704025e-01	1.386136478233538e-02	6.416977405982021e-04
104                    	1.154738294215836e-02	1.511080301940785e-02	1.076928855949018e-01	1.376367312701011e-02	6.388160967154405e-04
105                    	1.147094946201655e-02	1.501695976934795e-02	1.047545730066212e-01	1.366864688234986e-02	6.263977508156509e-04
106                    	1.139197058089757e-02	1.494509820481115e-02	1.011975730542312e-01	1.356029992674551e-02	6.213423930623238e-04
107                    	1.130147787366934e-02	1.488483236645322e-02	9.784260009981798e-02	1.345457471503942e-02	6.134857262097846e-04
108                    	1.117433754100392e-02	1.479927566481929e-02	9.823073866785781e-02	1.334032278848581e-02	5.951880655902088e-04
109                    	1.102932792258564e-02	1.474028349741328e-02	1.019776080836664e-01	1.324524615061406e-02	5.884508358869353e-04
110                    	1.089841776931464e-02	1.465968987233505e-02	1.050413259029011e-01	1.310955751768231e-02	5.829641083612727e-04
111                    	1.079065525506773e-02	1.456252027778678e-02	1.070419158151709e-01	1.297247093077945e-02	5.656451154673446e-04
112                    	1.071259800583517e-02	1.447763671962050e-02	1.057269932114979e-01	1.288492092448357e-02	5.583998219445235e-04
113                    	1.062284449505976e-02	1.443959059849637e-02	1.030931720612793e-01	1.278732431879294e-02	5.488703049123823e-04
114                    	1.050810800628220e-02	1.444546076930303e-02	1.020899844304056e-01	1.267715835039060e-02	5.388332602032998e-04
115                    	1.038885023384473e-02	1.443053972725208e-02	1.011610358465850e-01	1.255539616658030e-02	5.297369746257720e-04
116                    	1.027597875809290e-02	1.437021898330398e-02	9.978779040292945e-02	1.242624589989379e-02	5.217615960340686e-04
117                    	1.017114997047215e-02	1.428733360237065e-02	9.736253056095608e-02	1.230739585591419e-02	5.116622218736284e-04
118                    	1.004771803228378e-02	1.420840120450538e-02	9.623004282230160e-02	1.220065268546600e-02	5.033741190627488e-04
119                    	9.910835657041633e-03	1.412735975661393e-02	9.827154558901349e-02	1.208056569155748e-02	4.924068291862559e-04
120                    	9.787321708915929e-03	1.403356594175151e-02	1.005125958297555e-01	1.197944848301543e-02	4.845258198058909e-04
121                    	9.676708881512116e-03	1.395176956189455e-02	1.004176357111015e-01	1.187224128014236e-02	4.767315844293236e-04
122                    	9.567055624568792e-03	1.389727485027662e-02	9.947447775045457e-02	1.178217576867339e-02	4.596091225522237e-04
123                    	9.453694948088648e-03	1.384453577900610e-02	9.939429250553934e-02	1.171461287334389e-02	4.549216614575979e-04
124                    	9.339520224868010e-03	1.378417225936600e-02	9.887035036358699e-02	1.164751704778167e-02	4.415582623543016e-04
125                    	9.228869347387588e-03	1.372747677094080e-02	9.754479034361532e-02	1.159995384405756e-02	4.370042419629324e-04
126                    	9.115856848833112e-03	1.366745516669911e-02	9.695116606786305e-02	1.154854088071839e-02	4.225265953146993e-04
127                    	9.012091551130589e-03	1.360574992028539e-02	9.724594300480885e-02	1.150660066139304e-02	4.185609165444849e-04
128                    	8.913189724404696e-03	1.353894873055834e-02	9.627872080372217e-02	1.146576021576055e-02	4.113763596683473e-04
129                    	8.813543398892697e-03	1.346132912876424e-02	9.560061155411249e-02	1.142887721253723e-02	3.990127993370875e-04
130                    	8.716719151048352e-03	1.337718611261457e-02	9.512281348515071e-02	1.139385985926128e-02	3.944647683049019e-04
131                    	8.621963861207990e-03	1.327581952108057e-02	9.288778352191690e-02	1.135249532060957e-02	3.836065533610069e-04
132                    	8.527761263554652e-03	1.316730131161938e-02	9.122218785399480e-02	1.131649586145341e-02	3.818885227490122e-04
133                    	8.433543139531648e-03	1.306271598299104e-02	8.953928620294060e-02	1.126574802085314e-02	3.723953878842942e-04
134                    	8.342254942108492e-03	1.296918031750537e-02	8.872694337626948e-02	1.120840188073036e-02	3.662352300402619e-04
135                    	8.254812464419656e-03	1.288570499326269e-02	8.744276604752117e-02	1.115600176687130e-02	3.651968700135041e-04
136                    	8.167530834216598e-03	1.280549949102788e-02	8.569268037849688e-02	1.109670354152980e-02	3.623586296470619e-04
137                    	8.082238790650519e-03	1.272111939737580e-02	8.303303262202152e-02	1.105804185801435e-02	3.576234951901838e-04
138                    	7.997318835653657e-03	1.263008916626508e-02	7.999814194100079e-02	1.102502626368625e-02	3.533781200330327e-04
139                    	7.911572308887522e-03	1.253359219636793e-02	7.792344476542264e-02	1.100299657766151e-02	3.489973671590647e-04
140                    	7.827514777782459e-03	1.242645319429100e-02	7.672230936773555e-02	1.095971658712938e-02	3.446216606352789e-04
141                    	7.751306802139295e-03	1.231544272709355e-02	7.598610276149548e-02	1.090486194095611e-02	3.393842094794448e-04
142                    	7.682221611908034e-03	1.220425208460207e-02	7.555755504463003e-02	1.085757750137152e-02	3.345700377465767e-04
143                    	7.618023613103021e-03	1.210169696861010e-02	7.604680019981823e-02	1.080763658869570e-02	3.327231042738934e-04
144                    	7.552985194762069e-03	1.201461017674446e-02	7.668266204053042e-02	1.076429578234188e-02	3.310230750585330e-04
145                    	7.489693847536023e-03	1.193649631004718e-02	7.715321981589969e-02	1.073314480999235e-02	3.286388322238383e-04
146                    	7.424159536440385e-03	1.185585198487921e-02	7.695924324763918e-02	1.069613873419727e-02	3.259380954113887e-04
147                    	7.363696355856360e-03	1.177460459027065e-02	7.717021355355588e-02	1.065252066030543e-02	3.201854149528045e-04
148                    	7.307130571065247e-03	1.168656633033336e-02	7.713319223803820e-02	1.059854100400755e-02	3.129343314816451e-04
149                    	7.256192383362421e-03	1.157885949280670e-02	7.715880588644139e-02	1.053173839463094e-02	3.082232290057686e-04
150                    	7.212142620602789e-03	1.146646382470558e-02	7.771281455942741e-02	1.045502518511550e-02	3.047728809076541e-04
151                    	7.171064484375488e-03	1.138089243249414e-02	7.806320685122457e-02	1.042227655025160e-02	3.023751982575693e-04
152                    	7.129790242757119e-03	1.132006930065234e-02	7.782464425521621e-02	1.038248542241206e-02	2.985685211257688e-04
153                    	7.090310216615916e-03	1.127670122057495e-02	7.791221583439958e-02	1.033321222084916e-02	2.944636041086547e-04
154                    	7.052612992069563e-03	1.123253802330799e-02	7.849768714665444e-02	1.027142875014974e-02	2.899336974229317e-04
155                    	7.019028303096946e-03	1.117750904431736e-02	7.874487274402042e-02	1.018395895781776e-02	2.848081824661871e-04
156                    	6.987388022144120e-03	1.110762691331913e-02	7.907224287572900e-02	1.008609432775586e-02	2.810307791269799e-04
157                    	6.954617468012993e-03	1.103107618625835e-02	7.915292236972306e-02	9.998979788323099e-03	2.777222612292199e-04
158                    	6.920942252274233e-03	1.096070578369221e-02	7.835557014376693e-02	9.968916025918794e-03	2.740768579738781e-04
159                    	6.887348394271521e-03	1.091714367698425e-02	7.794495918059541e-02	9.933979464886930e-03	2.715068627391207e-04
160                    	6.855175457243883e-03	1.088175807627401e-02	7.893849859868859e-02	9.879797494784312e-03	2.674695657359849e-04
161                    	6.824452002269103e-03	1.084090178839880e-02	7.959274010642667e-02	9.795198001046437e-03	2.631905338237946e-04
162                    	6.797867892212948e-03	1.078497516163668e-02	8.039333489528612e-02	9.701956120662547e-03	2.601309820568818e-04
163                    	6.770153786772931e-03	1.071422347203086e-02	8.081289821551806e-02	9.636316888935341e-03	2.563907586222228e-04
164                    	6.738677157369737e-03	1.064135632508784e-02	8.024873695306416e-02	9.645684040732620e-03	2.531672528393366e-04
165                    	6.701010454843205e-03	1.059150087895220e-02	7.930420961917499e-02	9.638875087699063e-03	2.496642230514528e-04
166                    	6.659736342370139e-03	1.055268559731032e-02	7.964634020805371e-02	9.596727477748574e-03	2.450889003216982e-04
167                    	6.620809818832380e-03	1.052394395605974e-02	7.987674008632478e-02	9.524102731607722e-03	2.423010647902431e-04
168                    	6.591082516875086e-03	1.048104703028640e-02	8.145314033123957e-02	9.443336570366176e-03	2.408790672610919e-04
169                    	6.562108273889133e-03	1.042783622654428e-02	8.267785297487712e-02	9.421571608528466e-03	2.390900442710826e-04
170                    	6.528298521502733e-03	1.036876498515476e-02	8.257606606290228e-02	9.445564995113688e-03	2.360325556941576e-04
171                    	6.489634243128990e-03	1.032286251603606e-02	8.141711820038326e-02	9.430318689464329e-03	2.329712834428728e-04
172                    	6.448453416524519e-03	1.028340944852499e-02	8.143895588279502e-02	9.373515013563693e-03	2.290096606613904e-04
173                    	6.405852363600603e-03	1.024716201644624e-02	8.148812155893231e-02	9.307916654457165e-03	2.263549963980752e-04
174                    	6.369851960333842e-03	1.020330423768056e-02	8.237618540888515e-02	9.274721637849427e-03	2.241208142779949e-04
175                    	6.331747606597968e-03	1.014769056475068e-02	8.334687811882527e-02	9.301446085214812e-03	2.219223702872796e-04
176                    	6.293055460048989e-03	1.009402454379088e-02	8.313928115786419e-02	9.303662164250529e-03	2.190454030233997e-04
177                    	6.254604710102582e-03	1.005366262920842e-02	8.260900813675966e-02	9.266070680365918e-03	2.163851790530322e-04
178                    	6.212813009184476e-03	1.001450586000926e-02	8.302712043732287e-02	9.200077223778452e-03	2.130879144321791e-04
179                    	6.171838791560236e-03	9.967998545199704e-03	8.330963916154829e-02	9.159865048183469e-03	2.107177642908306e-04
180                    	6.129147042689292e-03	9.914551963764204e-03	8.360262423420124e-02	9.171776440577871e-03	2.074882186769776e-04
181                    	6.087041569533512e-03	9.853019488578470e-03	8.362394592185469e-02	9.184939065988674e-03	2.050283798884224e-04
182                    	6.044370642598523e-03	9.810007967887197e-03	8.329303335856710e-02	9.149213601917311e-03	2.019458427877290e-04
183                    	6.001123857853967e-03	9.771761102796787e-03	8.370677109549592e-02	9.075784754065860e-03	1.989628107095903e-04
184                    	5.955579229564646e-03	9.722667427640073e-03	8.445648888838372e-02	9.019340134814032e-03	1.963105993676764e-04
185                    	5.913446759663166e-03	9.666158258646747e-03	8.392051703918825e-02	8.996547608870264e-03	1.932741422123293e-04
186                    	5.871064605330289e-03	9.609457703889105e-03	8.408944719573770e-02	8.965955957844867e-03	1.902666637617716e-04
187                    	5.826691847961855e-03	9.565420778798382e-03	8.341029359894142e-02	8.924184326864672e-03	1.878300721446877e-04
188                    	5.779545706821694e-03	9.536347443762192e-03	8.374203185076971e-02	8.864048282520959e-03	1.847090876331934e-04
189                    	5.731490520927130e-03	9.493161670147491e-03	8.334053137001537e-02	8.816297037132808e-03	1.811682868448684e-04
190                    	5.683965716234899e-03	9.435362818079395e-03	8.280275549562299e-02	8.763532081305928e-03	1.781194499401571e-04
191                    	5.638807280548459e-03	9.374309817904009e-03	8.271524813472393e-02	8.706186734334063e-03	1.755194250034365e-04
192                    	5.594363794223973e-03	9.332844273257765e-03	8.322199928320055e-02	8.646914925160577e-03	1.723575337890922e-04
193                    	5.545276212435194e-03	9.301223744592845e-03	8.340633079339220e-02	8.594592266347241e-03	1.700228903428042e-04
194                    	5.495118946268703e-03	9.263201367116544e-03	8.222947228795471e-02	8.541717687327928e-03	1.672292964717709e-04
195                    	5.448411337433626e-03	9.210918890022048e-03	8.096202318059662e-02	8.482546678916663e-03	1.645911827817587e-04
196                    	5.405296838155459e-03	9.157526863117996e-03	8.183155484825136e-02	8.429295046358505e-03	1.621127350014516e-04
197                    	5.364202221655637e-03	9.112505983414959e-03	8.262704477075460e-02	8.365757441313180e-03	1.591451662725051e-04
198                    	5.323435398431629e-03	9.066120560759821e-03	8.131724809674236e-02	8.305510009780937e-03	1.567858240892935e-04
199                    	5.279684405069010e-03	9.025865387403045e-03	7.930268561525107e-02	8.250349194587080e-03	1.539105928194410e-04
200                    	5.235199185597159e-03	8.975893293638052e-03	7.860706454002124e-02	8.203006177267033e-03	1.531940287940699e-04
201                    	5.194035879387732e-03	8.942899188082004e-03	8.008467195432269e-02	8.150888864076229e-03	1.513485121459602e-04
202                    	5.157252945921765e-03	8.893428843912308e-03	8.125743892796820e-02	8.089651773639571e-03	1.495728078225633e-04
203                    	5.119466881278366e-03	8.835125613571764e-03	7.904799196943905e-02	8.029556902568007e-03	1.476818210807678e-04
204                    	5.081087216807372e-03	8.785302561432546e-03	7.600042314961060e-02	7.975596098652456e-03	1.463676123540495e-04
205                    	5.042629589364592e-03	8.745638671903585e-03	7.537677623648165e-02	7.933278481177650e-03	1.448170894389731e-04
206                    	5.003404386841294e-03	8.722666962958769e-03	7.712239217415767e-02	7.889116016341223e-03	1.451916712082771e-04
207                    	4.966509016172919e-03	8.670389011131126e-03	7.754632372420234e-02	7.839805134363028e-03	1.440028794978369e-04
208                    	4.931911781043796e-03	8.606202767699732e-03	7.519182049382406e-02	7.798216934762703e-03	1.426288342068143e-04
209                    	4.897193366709958e-03	8.542551762180760e-03	7.178166419434980e-02	7.759305642058149e-03	1.416717446738428e-04
210                    	4.865197184405103e-03	8.518797945444773e-03	7.146018090785269e-02	7.722216470724696e-03	1.408074008280087e-04
211                    	4.829784815708909e-03	8.491655614234411e-03	7.257680721697359e-02	7.684384796482449e-03	1.398975172944545e-04
212                    	4.792269303368826e-03	8.439735768196583e-03	7.202531700274654e-02	7.639516228767559e-03	1.400536291608777e-04
213                    	4.759416685130487e-03	8.374430466498719e-03	6.978198537261371e-02	7.602659334123399e-03	1.371444805502205e-04
214                    	4.729747710070327e-03	8.312663098154059e-03	6.781332510231752e-02	7.564240142308082e-03	1.366970442266723e-04
215                    	4.700796446029074e-03	8.285363643086024e-03	6.793634409107337e-02	7.524657839324950e-03	1.358571186239451e-04
216                    	4.668760519894856e-03	8.245049287265639e-03	6.815398463159014e-02	7.479836444006177e-03	1.351981906873670e-04
217                    	4.636369157743023e-03	8.190410812567477e-03	6.725602480397477e-02	7.432471070888940e-03	1.323558706226407e-04
218                    	4.606700377316383e-03	8.127844986005625e-03	6.498914487958546e-02	7.397238421471073e-03	1.308448649068679e-04
219                    	4.578889648425373e-03	8.077767256332927e-03	6.385391802549097e-02	7.361090088874236e-03	1.289145630701484e-04
220                    	4.552344858344837e-03	8.040005327449388e-03	6.392590646015460e-02	7.323455659241769e-03	1.273558900063882e-04
221                    	4.523669973348930e-03	7.985734409453493e-03	6.359273969830892e-02	7.286193998402381e-03	1.258211386935434e-04
222                    	4.493468819448460e-03	7.925341910648661e-03	6.180418163001310e-02	7.247478931900177e-03	1.243755748653701e-04