3 	0.00391112967796271 	-1.90819582357449e-17 	1.03161422060162 	6.21593591452538e-05 	445.873151640943
3 	0.0118766651674914 	-2.42861286636753e-17 	1.03161554721302 	0.000631603803679761 	128.061800592488
3 	0.0201340015485759 	-2.77555756156289e-17 	1.03161356517212 	0.00241846893565096 	34.2931565732589
3 	0.0286938283423949 	-3.12250225675825e-17 	1.03160599415207 	0.00458485403775736 	15.5994952771998
3 	0.0375672266585909 	-3.12250225675825e-17 	1.0315930652414 	0.0064874088144469 	9.55210591350342
3 	0.0467656835403032 	-2.42861286636753e-17 	1.03157464469626 	0.00809017143359487 	6.9082481360396
3 	0.0563011068347007 	-1.56125112837913e-17 	1.03155141656146 	0.00948200153154612 	5.47328874086911
3 	0.0661858406082649 	-1.73472347597681e-17 	1.03152412696063 	0.010730488839497 	4.57907709937984
3 	0.0764326811267816 	-1.90819582357449e-17 	1.03149325506639 	0.0118784347127249 	3.97022373976294
3 	0.0870548934207257 	-1.73472347597681e-17 	1.03145911661067 	0.0129534513097777 	3.53017540568541
3 	0.0980662284574838 	-1.56125112837913e-17 	1.03142195105953 	0.0139742299900326 	3.19849194419571
3 	0.109480940942647 	-8.67361737988404e-18 	1.0313819506966 	0.0149540324974325 	2.94076682447232
3 	0.121313807773417 	-3.46944695195361e-18 	1.03133927461441 	0.0159026629714463 	2.73598623698059
3 	0.133580147168011 	-5.20417042793042e-18 	1.0312940594445 	0.0168276297786727 	2.57059638785226
3 	0.146295838495839 	-6.93889390390723e-18 	1.03124642742433 	0.0177348607420924 	2.43546948363467
3 	0.159477342834115 	0 	1.03119649265377 	0.01862916152659 	2.32424192134576
3 	0.173141724277517 	1.38777878078145e-17 	1.03114436657684 	0.019514520021236 	2.23235165961395
3 	0.18730667202848 	3.12250225675825e-17 	1.03109016344175 	0.0203943147560845 	2.1564542685331
3 	0.201990523296728 	4.16333634234434e-17 	1.03103400625791 	0.0212714615030944 	2.09405478254851
3 	0.217212287037676 	3.81639164714898e-17 	1.03097603366193 	0.0221485189285664 	2.04326800042623
3 	0.232991668560441 	3.81639164714898e-17 	1.030916408138 	0.0230277665200818 	2.00265818981866
3 	0.249349095037321 	4.5102810375397e-17 	1.03085532606691 	0.0239112634832896 	1.97112957140977
3 	0.266305741947753 	4.85722573273506e-17 	1.03079303010805 	0.024800894567883 	1.94785031527384
3 	0.283883560490999 	4.16333634234434e-17 	1.03072982448694 	0.025698407118237 	1.93219934571541
3 	0.30210530600303 	3.46944695195361e-17 	1.03066609385019 	0.0266054426490848 	1.92372917888626
3 	0.320994567414414 	2.77555756156289e-17 	1.03060232645543 	0.0275235656885381 	1.92214044729974
3 	0.340575797787321 	1.04083408558608e-17 	1.03053914259194 	0.0284542923728532 	1.9272653181582
3 	0.360874345971201 	0 	1.03047732924687 	0.0293991212351688 	1.93905803733008
3 	0.381916489418091 	3.46944695195361e-18 	1.03041788195868 	0.0303595687461797 	1.95759152717419
3 	0.403729468200046 	1.04083408558608e-17 	1.03036205476242 	0.031337212390971 	1.98305944573176
3 	0.426341520272733 	2.08166817117217e-17 	1.03031142221652 	0.0323337443586673 	2.01578343128763
3 	0.441285719950775 	2.60208521396521e-17 	1.03028196150605 	0.0329849183721593 	2.04040301567486
3 	0.453216730115852 	2.94902990916057e-17 	1.0302622460969 	0.0334989312156287 	2.06257896949195
3 	0.474081006202548 	3.12250225675825e-17 	1.03023387112657 	0.0343907734570131 	2.10484197746381
3 	0.499270241132364 	4.16333634234434e-17 	1.03021212799901 	0.0354558982695894 	2.16258510996583
3 	0.525382231502763 	6.24500451351651e-17 	1.03020595556071 	0.0365493280718973 	2.23041959050346
3 	0.552450780547767 	5.89805981832114e-17 	1.03022254065101 	0.0376747144533256 	2.30956502695359
3 	0.58051092981285 	4.5102810375397e-17 	1.03027313653041 	0.0388382460314863 	2.40167585860049
3 	0.609599004517911 	3.81639164714898e-17 	1.03036289914033 	0.0400533820889323 	2.50926560192003
3 	0.639752660582033 	3.81639164714898e-17 	1.03050000328896 	0.0413361213382002 	2.63479504525143
3 	0.671010933370887 	4.16333634234434e-17 	1.03069988656787 	0.0426752393571356 	2.77649495450414
3 	0.703414288229901 	4.16333634234434e-17 	1.03096760272439 	0.04400541453186 	2.92444700169834
3 	0.737004672868606 	4.5102810375397e-17 	1.03130547839394 	0.0452247835777142 	3.06325481767863
3 	0.771825571663976 	5.89805981832114e-17 	1.03171284379082 	0.0462285324098663 	3.17943132207289
3 	0.807922061953054 	6.24500451351651e-17 	1.03218237660176 	0.0469310539202779 	3.2657455768972
3 	0.845340872387743 	5.55111512312578e-17 	1.03270258096861 	0.0472719366223383 	3.31976443971698
3 	0.88413044342731 	5.55111512312578e-17 	1.03326339706198 	0.0472140338995644 	3.34088026821177
3 	0.924340990046898 	5.55111512312578e-17 	1.03386070750309 	0.0467393283265344 	3.32849415306318
3 	0.966024566743242 	5.89805981832114e-17 	1.0344974445046 	0.045845166866542 	3.28122057513951
3 	1.00923513492173 	6.24500451351651e-17 	1.03518158861604 	0.044545657843987 	3.19687890839052
3 	1.05402863275206 	6.24500451351651e-17 	1.03592307540383 	0.0428826182430121 	3.07354000662217
3 	1.10046304758287 	6.59194920871187e-17 	1.03673136281039 	0.0409424333186574 	2.91177507194797
3 	1.14859849100923 	6.93889390390723e-17 	1.03761124587763 	0.0388623213066285 	2.71729465537952
3 	1.19849727668995 	6.59194920871187e-17 	1.03855508632701 	0.0368022339212173 	2.50154140942623
3 	1.25022400101563 	6.04984812246911e-17 	1.03960786821109 	0.0348773634006557 	2.278215835614
3 	1.30384562673186 	5.70290342727375e-17 	1.04073186612017 	0.033173121832882 	2.05955439732819
3 	1.35943156962566 	5.46437894932694e-17 	1.04183710362645 	0.0317165091343894 	1.85425262890576
3 	1.41705378838763 	5.63785129692462e-17 	1.04293670232176 	0.030485507327542 	1.67172582916555
3 	1.47678687776592 	6.24500451351651e-17 	1.04403127534634 	0.0294108415516528 	1.51719339992787
3 	1.53870816513278 	6.24500451351651e-17 	1.0451234754989 	0.0283965721993036 	1.38668303636823
3 	1.60289781058851 	6.07153216591882e-17 	1.04621594544626 	0.0273487673684161 	1.27199512396992
3 	1.66943891073267 	5.89805981832114e-17 	1.04730911282947 	0.0262001666788277 	1.16822335947066
3 	1.73841760623657 	5.20417042793042e-17 	1.04839907633934 	0.0249202363016822 	1.07484681895921
3 	1.8099231933566 	4.85722573273506e-17 	1.04947917428414 	0.0235060457180549 	0.991408246740173
3 	1.88404823953249 	4.68375338513738e-17 	1.05054193004397 	0.0219726770387203 	0.916487486512734
3 	1.96088870322038 	1.73472347597681e-17 	1.05151403327185 	0.0204426514939883 	0.852446604896535
3 	2 	2.08166817117217e-17 	1.05195292668563 	0.0197168553689504 	0.824304126976502
3 	2.02024009608346 	2.42861286636753e-17 	1.05226586049021 	0.0192000771954957 	0.806442454486624
3 	2.06000503604194 	2.77555756156289e-17 	1.05280508712283 	0.0182764162043332 	0.775735971733549
3 	2.09836474743796 	2.77555756156289e-17 	1.05324441354393 	0.0174836530914068 	0.751751817535041
3 	2.13536888877257 	2.77555756156289e-17 	1.05365405872433 	0.0167330453604189 	0.731078827129727
3 	2.17106536369585 	2.77555756156289e-17 	1.05403169813808 	0.0160244437256619 	0.713527576492257
3 	2.20550038302044 	2.77555756156289e-17 	1.05437932195226 	0.0153569368744387 	0.698929106327881
3 	2.23871852454378 	2.42861286636753e-17 	1.05469907343854 	0.0147290960646726 	0.68713588695002
3 	2.27076279075613 	2.08166817117217e-17 	1.05499287448781 	0.0141391658272139 	0.678023389075021
3 	2.30167466450941 	2.08166817117217e-17 	1.05526254515752 	0.0135852115633852 	0.67149160495314
3 	2.33149416271872 	1.73472347597681e-17 	1.05550981857099 	0.0130652297023177 	0.667466185105255
3 	2.36025988816627 	1.38777878078145e-17 	1.05573633569484 	0.0125772272718225 	0.665899184600764
3 	2.38800907947441 	1.38777878078145e-17 	1.05594364609282 	0.0121192774949857 	0.666769543350796
3 	2.41477765931296 	1.38777878078145e-17 	1.0561332102908 	0.0116895571018783 	0.67008345188347
3 	2.44060028090273 	1.38777878078145e-17 	1.05630640248882 	0.0112863699880448 	0.67587473774016
3 	2.46551037287587 	1.38777878078145e-17 	1.05646451356103 	0.0109081608585132 	0.684205376856503
3 	2.48954018255081 	1.38777878078145e-17 	1.05660875421271 	0.0105535216345415 	0.695166202094705
3 	2.51272081767801 	1.38777878078145e-17 	1.05674025815649 	0.0102211926858509 	0.708877852674848
3 	2.53508228671038 	1.38777878078145e-17 	1.0568600852118 	0.00991006037410468 	0.72549198489687
3 	2.55665353765073 	1.38777878078145e-17 	1.0569692242672 	0.00961915193513823 	0.745192745988359
3 	2.57746249552636 	1.38777878078145e-17 	1.05706859607418 	0.00934762836873059 	0.768198498692453
3 	2.59753609853934 	1.38777878078145e-17 	1.05715905586604 	0.00909477572966087 	0.794763774411242
3 	2.6169003329393 	1.38777878078145e-17 	1.05724139581619 	0.00885999501143833 	0.825181428424289
3 	2.6355802666639 	1.38777878078145e-17 	1.05731634736704 	0.00864279067851186 	0.859784974269366
3 	2.6536000817905 	1.38777878078145e-17 	1.05738458347244 	0.00844275783257002 	0.898951089589554
3 	2.67098310584103 	1.73472347597681e-17 	1.05744672080516 	0.00825956799548198 	0.943102317780256
3 	2.68775184198056 	2.08166817117217e-17 	1.05750332198401 	0.00809295355805027 	0.992710044773828
3 	2.70392799814879 	2.08166817117217e-17 	1.05755489787433 	0.00794269107999706 	1.0482979145854
3 	2.71953251516198 	2.08166817117217e-17 	1.05760191000969 	0.00780858382554209 	1.11044596582004
3 	2.73458559382185 	2.08166817117217e-17 	1.05764477317191 	0.0076904441622006 	1.17979592593873
3 	2.74910672106653 	2.08166817117217e-17 	1.05768385815107 	0.00758807670486545 	1.25705828694106
3 	2.76311469519732 	2.08166817117217e-17 	1.05771949468814 	0.00750126330441322 	1.34302199425202
3 	2.776627650214 	2.08166817117217e-17 	1.05775197458125 	0.00742975110068033 	1.43856779144047
3 	2.78966307929018 	2.08166817117217e-17 	1.05778155491519 	0.00737324482367309 	1.54468645295349
3 	2.80223785741904 	1.73472347597681e-17 	1.05780846135459 	0.00733140428850389 	1.66250328103404
3 	2.81436826325886 	1.38777878078145e-17 	1.05783289142796 	0.00730384757333867 	1.79331032458603
3 	2.82607000020648 	1.38777878078145e-17 	1.05785501772447 	0.0072901597223049 	1.93860779642935
3 	2.83735821672614 	1.38777878078145e-17 	1.05787499092916 	0.00728990604763338 	2.10015614432704
3 	2.84824752595991 	1.38777878078145e-17 	1.05789294263632 	0.0073026483215236 	2.28004022129263
3 	2.85875202464507 	1.38777878078145e-17 	1.0579089879018 	0.00732796146510852 	2.48074708124949
3 	2.86888531136304 	1.38777878078145e-17 	1.05792322752193 	0.00736544786502893 	2.70525920519357
3 	2.87866050414343 	1.38777878078145e-17 	1.05793575005469 	0.00741474625512086 	2.95716558524565
3 	2.88809025744591 	1.38777878078145e-17 	1.05794663362374 	0.00747553223949326 	3.24079426643317
3 	2.89718677854204 	1.38777878078145e-17 	1.05795594756157 	0.00754750803818481 	3.56137199545002
3 	2.90596184331819 	1.38777878078145e-17 	1.05796375400426 	0.00763037996067255 	3.92522010109425
3 	2.91442681151997 	1.38777878078145e-17 	1.0579701097459 	0.00772382357840938 	4.34000156516284
3 	2.92259264145801 	1.38777878078145e-17 	1.05797506773606 	0.00782743885863258 	4.81504398431812
3 	2.93046990419395 	1.38777878078145e-17 	1.05797867170386 	0.00794070117700172 	5.36177961789525
3 	2.93806879722526 	1.73472347597681e-17 	1.05798096152501 	0.00806291213468554 	5.99441285784111
3 	2.94539915768638 	2.08166817117217e-17 	1.05798205280193 	0.00819300857693155 	6.73166042835522
3 	2.95247047508335 	2.08166817117217e-17 	1.05798213760577 	0.00832924781381987 	7.59900840200141
3 	2.9592919035784 	2.08166817117217e-17 	1.05798127481346 	0.00846837667444954 	8.62833500617503
3 	2.96587227384055 	2.08166817117217e-17 	1.05797934711614 	0.00860432704224214 	9.85641437109707
3 	2.97222010447726 	2.08166817117217e-17 	1.05797626907019 	0.00872767325935662 	11.3273214056261
3 	2.97834361306218 	2.08166817117217e-17 	1.05797206983035 	0.00882561306098863 	13.0992264374051
3 	2.98425072677325 	2.08166817117217e-17 	1.05796684853163 	0.00888142785270794 	15.2553991362216
3 	2.98994909265477 	2.08166817117217e-17 	1.05796075250509 	0.00887298146242237 	17.9249065009241
3 	2.99544608751689 	2.08166817117217e-17 	1.0579539793164 	0.00876959184574378 	21.3173997766681
3 	3.00074882748522 	2.08166817117217e-17 	1.05794678977727 	0.00852620419881027 	25.7821144369048
3 	3.00586417721304 	2.08166817117217e-17 	1.05793951509618 	0.00807293847297204 	31.9349300269341
3 	3.01079875876789 	2.42861286636753e-17 	1.05793254548863 	0.00729847132419117 	40.961833136971
3 	3.01555896020418 	2.77555756156289e-17 	1.05792636012867 	0.00603633325645874 	55.49861870738
3 	3.02015094383282 	2.77555756156289e-17 	1.0579215086858 	0.00415233490592179 	83.4286588067206
3 	3.02458065419862 	2.77555756156289e-17 	1.05791824587385 	0.00203755977696751 	164.37178575771
3 	3.02885382577583 	2.77555756156289e-17 	1.05791625038824 	0.000585285336508766 	655.212657568872
