1 	0.451351328259074 	-2.42861286636753e-17 	1.02697829602043 	2.86994930496398e-05 	1076.39034087405
1 	0.457856884621384 	-2.77555756156289e-17 	1.02694628401419 	0.00024573083970683 	328.4521942529
1 	0.464597494115859 	-2.77555756156289e-17 	1.02691425891959 	0.000970835738173699 	96.8310041220553
1 	0.471581531993916 	-3.46944695195361e-17 	1.02688633175778 	0.00229633512126887 	44.1064687050399
1 	0.478817663648872 	-4.16333634234434e-17 	1.0268655225259 	0.00385129176709028 	25.4406356259122
1 	0.486314854099112 	-4.16333634234434e-17 	1.02685487558366 	0.00533086867035502 	17.1715315159299
1 	0.494082377743682 	-3.46944695195361e-17 	1.02685432269315 	0.00667015910110911 	12.8853990213437
1 	0.502129828395864 	-3.12250225675825e-17 	1.02686220948188 	0.00789296295049133 	10.3601397148154
1 	0.510467129600163 	-4.16333634234434e-17 	1.02687689344909 	0.00903243385475689 	8.71984257015319
1 	0.519104545238184 	-5.55111512312578e-17 	1.02689721185101 	0.0101151013997697 	7.57599403830943
1 	0.528052690428786 	-6.24500451351651e-17 	1.02692238204636 	0.0111607995895011 	6.73619084764172
1 	0.537322542727918 	-6.24500451351651e-17 	1.02695185579835 	0.0121846535135487 	6.09594131783309
1 	0.546925453633457 	-6.24500451351651e-17 	1.02698524634724 	0.0131987106205039 	5.59417373547445
1 	0.556873160400326 	-6.24500451351651e-17 	1.02702230026836 	0.0142130603879848 	5.19308762591668
1 	0.567177798171134 	-5.89805981832114e-17 	1.02706289536243 	0.0152365945086592 	4.86823922067537
1 	0.577851912427522 	-4.85722573273506e-17 	1.02710706095284 	0.0162775453092571 	4.60331572479692
1 	0.588908471767319 	-3.81639164714898e-17 	1.02715502046925 	0.0173438957852279 	4.38722378045443
1 	0.600360881012588 	-3.12250225675825e-17 	1.02720725759632 	0.018443722788238 	4.21239685625588
1 	0.612222994653594 	-2.42861286636753e-17 	1.02726460858047 	0.0195855161302229 	4.07378399825399
1 	0.624509130633639 	-2.08166817117217e-17 	1.0273283841648 	0.0207785065076921 	3.96824287820314
1 	0.637234084479704 	-1.73472347597681e-17 	1.02740052509445 	0.0220330310043515 	3.8941897746942
1 	0.650413143783826 	-1.73472347597681e-17 	1.027483794912 	0.023360964458986 	3.85142799448307
1 	0.664062103040055 	-2.42861286636753e-17 	1.0275820124166 	0.0247762466325378 	3.84111555794561
1 	0.678197278841898 	-2.77555756156289e-17 	1.02770031842469 	0.0262955369745576 	3.8658573146633
1 	0.692835525445182 	-2.91650384398601e-17 	1.02784427681816 	0.0279420478652538 	3.93103296893229
1 	0.707994250701264 	-3.78386558197441e-17 	1.02802268566527 	0.0297441002091461 	4.04469091409697
1 	0.723691432365647 	-4.55364912443912e-17 	1.02824951991825 	0.0317287106336932 	4.21487353497164
1 	0.739945634787164 	-4.64038529823796e-17 	1.02853932774913 	0.0339343106735362 	4.45451509637164
1 	0.756776025983054 	-4.59701721133854e-17 	1.02890820836588 	0.0364063738460835 	4.78063013612655
1 	0.774202395105461 	-4.59701721133854e-17 	1.0293714341795 	0.039192547582276 	5.21187377672129
1 	0.792245170305166 	-5.03069808033274e-17 	1.02994073158412 	0.0423232098055705 	5.75810530121278
1 	0.810925436998707 	-5.20417042793042e-17 	1.03062292343745 	0.0457870537703518 	6.40656453517867
1 	0.830264956545436 	-5.29090660172926e-17 	1.03141460459074 	0.0495366144989668 	7.13139390171095
1 	0.850286185341601 	-5.3776427755281e-17 	1.0323028389902 	0.053464117692089 	7.89296866818552
1 	0.871012294339098 	-4.33680868994202e-17 	1.03327644760303 	0.0573263936605408 	8.59864315641484
1 	0.892467188997261 	-3.64291929955129e-17 	1.03431968911021 	0.0608270415236229 	9.14699313569813
1 	0.914675529676922 	-3.81639164714898e-17 	1.03540063763454 	0.0637372662917517 	9.47830854251051
1 	0.937662752486865 	-4.33680868994202e-17 	1.03647627876652 	0.0659395435057035 	9.55687441093685
1 	0.961455090593968 	-4.5102810375397e-17 	1.03750126440463 	0.0674683959097828 	9.37024949776804
1 	0.986079596009581 	-4.16333634234434e-17 	1.03843581275741 	0.0685088433024387 	8.93425756782287
1 	1.01156416186612 	-4.5102810375397e-17 	1.03925037211825 	0.069334493231403 	8.29348252768929
1 	1.03793754519955 	-4.85722573273506e-17 	1.0399268184939 	0.0702100138089834 	7.51592830758596
1 	1.06522939025519 	-4.5102810375397e-17 	1.04046001768291 	0.0713046299250326 	6.67806067696699
1 	1.09347025233648 	-4.5102810375397e-17 	1.04085984018667 	0.072655910194022 	5.85058347878503
0.999999999999999 	1.12269162221858 	-3.81639164714898e-17 	1.04115145746982 	0.0741919014536155 	5.08892433933621
0.999999999999999 	1.1529259511513 	-3.12250225675825e-17 	1.04137235655561 	0.0757860287078365 	4.42896230956513
0.999999999999999 	1.18420667647869 	-3.12250225675825e-17 	1.04156651297714 	0.0773132858390397 	3.88337531223049
0.999999999999999 	1.20932909529518 	-2.77555756156289e-17 	1.04172646105572 	0.0784026227235029 	3.52939882784154
0.999999999999999 	1.22578615918077 	-3.12250225675825e-17 	1.04184006056636 	0.0790399979438405 	3.3328743984
1 	1.25005321751936 	-3.12250225675825e-17 	1.04203403989409 	0.0798451211012191 	3.08701284085202
1 	1.28469102414952 	-2.77555756156289e-17 	1.0423643763807 	0.0807657874056312 	2.79767471902057
1 	1.3205186819877 	-2.42861286636753e-17 	1.04278443881952 	0.081428827185386 	2.55922246645841
1 	1.3575749113035 	-1.38777878078145e-17 	1.04330615180474 	0.0818287318091926 	2.35986376565749
1 	1.39589958614917 	-1.04083408558608e-17 	1.04393830619441 	0.0819658048603401 	2.19110827799514
1 	1.43553376564998 	-1.38777878078145e-17 	1.04468697558267 	0.0818438492709584 	2.04676166305912
1 	1.4765197263163 	-1.04083408558608e-17 	1.04555574330171 	0.0814686931902631 	1.92220184526483
1 	1.51890099544962 	-6.93889390390723e-18 	1.04654594199243 	0.0808472518511947 	1.81389654408761
1 	1.56272238572095 	0 	1.0476568568097 	0.0799869621768964 	1.71908569864832
1 	1.60803003100759 	1.04083408558608e-17 	1.04888587274715 	0.0788954859679945 	1.63557268916089
1 	1.65487142358123 	1.04083408558608e-17 	1.05022857850476 	0.0775806053545795 	1.56158774149615
1 	1.70329545274835 	0 	1.05167884268608 	0.0760502481239541 	1.49569960910932
1 	1.75335244505181 	-3.46944695195361e-18 	1.05322884000018 	0.074312588633072 	1.43675975975827
1 	1.80509420615134 	2.81892564846231e-18 	1.0548705045911 	0.0723739003964861 	1.38392592782451
1 	1.85857406450905 	8.02309607639273e-18 	1.05659714417835 	0.0702393247481871 	1.33662179653513
1 	1.91384691701544 	5.20417042793042e-18 	1.05839247000339 	0.0679254115958047 	1.29424806033282
1 	1.97096927670056 	-6.07153216591882e-18 	1.0601810018489 	0.0654713750187971 	1.2569593176795
1 	2.02024009608346 	-1.04083408558608e-17 	1.06181806261346 	0.0632806500163466 	1.22931986773641
1 	2.06000503604194 	-1.04083408558608e-17 	1.06305974746661 	0.0614457438483221 	1.20946361958355
1 	2.09836474743796 	-1.04083408558608e-17 	1.06423576218205 	0.0596795395936414 	1.19321487421057
1 	2.13536888877257 	-1.04083408558608e-17 	1.06535348605138 	0.0579586310676248 	1.17998348124466
1 	2.17106536369584 	-1.04083408558608e-17 	1.06640728344118 	0.0562857840584803 	1.16957944078887
1 	2.20550038302044 	-1.04083408558608e-17 	1.06739928857537 	0.0546626548758569 	1.16185736068775
1 	2.23871852454378 	-1.04083408558608e-17 	1.0683317523305 	0.0530900405335671 	1.15670726600819
1 	2.27076279075613 	-1.04083408558608e-17 	1.06920687424785 	0.0515680743878067 	1.15404808605824
1 	2.3016746645094 	-1.38777878078145e-17 	1.07002704894665 	0.0500963825221792 	1.15382310249389
1 	2.33149416271872 	-2.08166817117217e-17 	1.07079480134307 	0.0486742086625379 	1.15599680219689
1 	2.36025988816626 	-2.42861286636753e-17 	1.0715127131514 	0.0473005137103793 	1.16055275262382
1 	2.38800907947441 	-2.42861286636753e-17 	1.0721833773411 	0.0459740548504066 	1.16749223868745
1 	2.41477765931295 	-3.12250225675825e-17 	1.07280936448847 	0.0446934482043696 	1.17683348284777
1 	2.44060028090272 	-3.81639164714898e-17 	1.07339319671855 	0.0434572182278718 	1.18861132860567
1 	2.46551037287586 	-3.46944695195361e-17 	1.07393732823446 	0.04226383643358 	1.20287730981232
1 	2.48954018255081 	-2.77555756156289e-17 	1.0744441311813 	0.0411117515330089 	1.21970005928868
1 	2.512720817678 	-2.42861286636753e-17 	1.07491588577923 	0.0399994126925967 	1.23916603389212
1 	2.53508228671037 	-2.42861286636753e-17 	1.07535477380203 	0.0389252872803616 	1.26138055191977
1 	2.55665353765073 	-2.42861286636753e-17 	1.07576287474024 	0.037887874220502 	1.28646915459116
1 	2.57746249552636 	-2.42861286636753e-17 	1.07614216403239 	0.0368857138644093 	1.31457931776914
1 	2.59753609853934 	-1.73472347597681e-17 	1.07649451294822 	0.0359173951173875 	1.34588255422014
1 	2.61690033293929 	-1.04083408558608e-17 	1.07682168970698 	0.0349815604245719 	1.38057696166139
1 	2.63558026666389 	-1.04083408558608e-17 	1.07712536157625 	0.0340769091100241 	1.41889028855783
1 	2.65360008179049 	-1.04083408558608e-17 	1.07740709766564 	0.0332021994760701 	1.46108360918665
1 	2.67098310584102 	-1.38777878078145e-17 	1.07766837226605 	0.0323562500006652 	1.50745572301427
1 	2.68775184198056 	-2.08166817117217e-17 	1.07791056853504 	0.031537939916988 	1.55834842236414
1 	2.70392799814879 	-2.08166817117217e-17 	1.07813498244716 	0.0307462094180071 	1.61415280839636
1 	2.71953251516198 	-1.38777878078145e-17 	1.07834282686673 	0.0299800596987511 	1.67531688092313
1 	2.73458559382185 	-6.93889390390723e-18 	1.07853523570609 	0.0292385530281078 	1.74235468551723
1 	2.74910672106653 	-6.93889390390723e-18 	1.07871326806388 	0.028520813029577 	1.81585737509414
1 	2.76311469519732 	-1.04083408558608e-17 	1.07887791233242 	0.0278260253446846 	1.89650663855447
1 	2.776627650214 	-6.93889390390723e-18 	1.07903009019538 	0.0271534388548369 	1.9850910724588
1 	2.78966307929018 	0 	1.0791706605222 	0.0265023676451708 	2.08252623253343
1 	2.80223785741904 	3.46944695195361e-18 	1.07930042309842 	0.0258721939081694 	2.18987931290165
1 	2.81436826325886 	0 	1.07942012220717 	0.0252623720038377 	2.30839967954028
1 	2.82607000020648 	0 	1.07953045001278 	0.0246724339173319 	2.43955685458151
1 	2.83735821672614 	6.93889390390723e-18 	1.07963204976586 	0.0241019963810607 	2.58508804287461
1 	2.8482475259599 	1.04083408558608e-17 	1.07972551878852 	0.0235507699541394 	2.74705795825739
1 	2.85875202464506 	1.38777878078145e-17 	1.07981141125913 	0.0230185703700256 	2.92793460964206
1 	2.86888531136304 	1.73472347597681e-17 	1.07989024075969 	0.0225053324628668 	3.13068593931013
1 	2.87866050414343 	1.38777878078145e-17 	1.07996248260064 	0.0220111269432913 	3.35890389932456
1 	2.88809025744591 	1.38777878078145e-17 	1.08002857588611 	0.0215361801822408 	3.61696489723919
1 	2.89718677854204 	1.38777878078145e-17 	1.08008892532518 	0.0210808969184488 	3.91023881982311
1 	2.90596184331818 	1.04083408558608e-17 	1.08014390274593 	0.0206458853377176 	4.24536346273498
1 	2.91442681151997 	6.93889390390723e-18 	1.08019384830316 	0.0202319831238276 	4.63060777188801
1 	2.922592641458 	3.46944695195361e-18 	1.08023907132555 	0.0198402816025794 	5.07635678571673
1 	2.93046990419394 	3.46944695195361e-18 	1.08027985077568 	0.0194721425927162 	5.59576504768332
1 	2.93806879722526 	6.93889390390723e-18 	1.08031643526343 	0.0191291984183321 	6.20564597165452
1 	2.94539915768638 	1.04083408558608e-17 	1.08034904259143 	0.0188133187665171 	6.92769633601532
1 	2.95247047508334 	1.04083408558608e-17 	1.08037785881967 	0.0185265172429446 	7.79020516709755
1 	2.9592919035784 	1.21430643318376e-17 	1.08040303692943 	0.0182707534187083 	8.8304786761722
1 	2.96587227384055 	1.38777878078145e-17 	1.08042469526291 	0.01804755961211 	10.0983551373439
1 	2.97222010447726 	1.04083408558608e-17 	1.0804429160961 	0.0178573804403769 	11.6614423999681
1 	2.97834361306218 	3.46944695195361e-18 	1.08045774493024 	0.0176984481331266 	13.613208118239
1 	2.98425072677325 	0 	1.08046919113885 	0.0175649086043893 	16.0860613035548
1 	2.98994909265477 	-3.46944695195361e-18 	1.08047722833047 	0.0174437165845758 	19.2737185166977
1 	2.99544608751689 	-6.93889390390723e-18 	1.08048178693169 	0.017309414655794 	23.4719898571154
1 	3.00074882748522 	-6.93889390390723e-18 	1.08048274274773 	0.0171149825718105 	29.1587681702766
1 	3.00586417721304 	-6.93889390390723e-18 	1.08047996231507 	0.0167745894984557 	37.1656156194965
1 	3.01079875876789 	-6.93889390390723e-18 	1.0804731338382 	0.0161280669480612 	49.0797193116223
1 	3.01555896020418 	0 	1.08045959712974 	0.0148622611378979 	68.3135870387803
1 	3.02015094383281 	3.46944695195361e-18 	1.0804311807705 	0.0123570509607887 	103.530475120568
1 	3.02458065419861 	0 	1.08038898844088 	0.00778556253736104 	184.543852591717
1 	3.02885382577582 	0 	1.08035633900767 	0.00240731004511905 	498.035095077857
1 	3.03297599039165 	-6.93889390390723e-18 	1.08034363542277 	0.000262677462072147 	1722.58557763629
