3 	0.00391112967796271 	-1.90819582357449e-17 	1.12325376980032 	0.0010982947474445 	447.323260113905
3 	0.0118766651674914 	-2.42861286636753e-17 	1.12322653540004 	0.00707515555310321 	138.615723824633
3 	0.0201340015485759 	-2.77555756156289e-17 	1.1231473870474 	0.015593929029412 	44.0856190196749
3 	0.0286938283423949 	-3.12250225675825e-17 	1.12299511752026 	0.022486400271845 	23.6833666424371
3 	0.0375672266585909 	-3.12250225675825e-17 	1.12278911912184 	0.0277407823837986 	16.1423055753962
3 	0.0467656835403032 	-2.42861286636753e-17 	1.12255033199662 	0.0320049521434401 	12.3221989727208
3 	0.0563011068347007 	-1.56125112837913e-17 	1.12228784681317 	0.0356537547248904 	10.0201576851489
3 	0.0661858406082649 	-1.73472347597681e-17 	1.12200607334004 	0.0388891405975375 	8.48233485389617
3 	0.0764326811267816 	-1.90819582357449e-17 	1.12170863680136 	0.041829370916351 	7.38389826062822
3 	0.0870548934207257 	-1.73472347597681e-17 	1.12139876530591 	0.0445494439721795 	6.56201511743168
3 	0.0980662284574838 	-1.56125112837913e-17 	1.12107932179516 	0.0471000036160354 	5.92599730183615
3 	0.109480940942647 	-8.67361737988404e-18 	1.12075294973346 	0.0495169566577078 	5.42128327834567
3 	0.121313807773417 	-3.46944695195361e-18 	1.12042217932791 	0.0518267535713991 	5.01305481490391
3 	0.133580147168011 	-5.20417042793042e-18 	1.12008947922448 	0.0540494767154589 	4.6780393223536
3 	0.146295838495839 	-6.93889390390723e-18 	1.11975728259096 	0.0562007403789693 	4.40009076380365
3 	0.159477342834115 	0 	1.11942800073294 	0.0582929077123116 	4.16766050687773
3 	0.173141724277517 	1.38777878078145e-17 	1.11910402848802 	0.0603358943456674 	3.97227682114329
3 	0.18730667202848 	3.12250225675825e-17 	1.1187877439762 	0.062337710266249 	3.80759227763473
3 	0.201990523296728 	4.16333634234434e-17 	1.11848150473187 	0.0643048286852211 	3.66876557350168
3 	0.217212287037676 	3.81639164714898e-17 	1.11818764175139 	0.0662424355490871 	3.55204793150555
3 	0.232991668560441 	3.81639164714898e-17 	1.11790845268114 	0.0681545928920173 	3.45449877028126
3 	0.249349095037321 	4.5102810375397e-17 	1.11764619519161 	0.0700443367988274 	3.37378534576338
3 	0.266305741947753 	4.85722573273506e-17 	1.11740308146823 	0.0719137229020089 	3.30803820753961
3 	0.283883560490999 	4.16333634234434e-17 	1.11718127497339 	0.0737638271924987 	3.25574443487919
3 	0.30210530600303 	3.46944695195361e-17 	1.11698289134887 	0.0755947064371533 	3.21566676177126
3 	0.320994567414414 	2.77555756156289e-17 	1.11681000299437 	0.0774053205108465 	3.18678053772204
3 	0.340575797787321 	1.04083408558608e-17 	1.11666464184893 	0.0791934174001106 	3.16822289114329
3 	0.360874345971201 	0 	1.11654880874505 	0.0809553756167321 	3.15924976962907
3 	0.381916489418091 	3.46944695195361e-18 	1.11646449310479 	0.0826860056514269 	3.1591978655039
3 	0.403729468200046 	1.04083408558608e-17 	1.11641369546347 	0.0843783106931498 	3.16744900798668
3 	0.426341520272733 	2.08166817117217e-17 	1.11639844878799 	0.0860232042277638 	3.18339480483364
3 	0.441285719950775 	2.60208521396521e-17 	1.11640599079892 	0.0870561073239362 	3.1970122244091
3 	0.453216730115852 	2.94902990916057e-17 	1.11642662170682 	0.0878331590011048 	3.21016193987106
3 	0.474081006202548 	3.12250225675825e-17 	1.11648222014199 	0.0891235951307703 	3.235661571441
3 	0.499270241132364 	4.16333634234434e-17 	1.11658565853244 	0.0905478457239838 	3.27050964356679
3 	0.525382231502763 	6.24500451351651e-17 	1.11673331114831 	0.091861385471843 	3.30995572873983
3 	0.552450780547767 	5.89805981832114e-17 	1.11692749620773 	0.0930395591210075 	3.35281432664936
3 	0.58051092981285 	4.5102810375397e-17 	1.11717049073111 	0.0940535594412025 	3.39762093170629
3 	0.609599004517911 	3.81639164714898e-17 	1.11746441278893 	0.0948703275614382 	3.44256765214385
3 	0.639752660582033 	3.81639164714898e-17 	1.11781104692599 	0.0954527519532888 	3.4854428708172
3 	0.671010933370887 	4.16333634234434e-17 	1.11821160446978 	0.0957603425843019 	3.52358653662616
3 	0.703414288229901 	4.16333634234434e-17 	1.11866642869455 	0.0957506378090114 	3.55388531484635
3 	0.737004672868606 	4.5102810375397e-17 	1.1191747219455 	0.0953817068229763 	3.57286095342974
3 	0.771825571663976 	5.89805981832114e-17 	1.11973447245609 	0.0946160694522014 	3.57692872149376
3 	0.807922061953054 	6.24500451351651e-17 	1.12034272741763 	0.0934258687148257 	3.5628326682221
3 	0.845340872387743 	5.55111512312578e-17 	1.12099604785616 	0.091798378104391 	3.52807531987381
3 	0.88413044342731 	5.55111512312578e-17 	1.12169068129373 	0.0897407930957028 	3.47107515868874
3 	0.924340990046898 	5.55111512312578e-17 	1.12242220690736 	0.0872840323948665 	3.39101317967082
3 	0.966024566743242 	5.89805981832114e-17 	1.12318497356168 	0.0844857822481692 	3.28763235540073
3 	1.00923513492173 	6.24500451351651e-17 	1.1239718615292 	0.0814322021341887 	3.16127800441112
3 	1.05402863275206 	6.24500451351651e-17 	1.12477460853595 	0.0782361389022745 	3.01324911174837
3 	1.10046304758287 	6.59194920871187e-17 	1.12558458591023 	0.0750289442666622 	2.84629644851137
3 	1.14859849100923 	6.93889390390723e-17 	1.12639373948101 	0.0719444390563874 	2.66496530019553
3 	1.19849727668995 	6.59194920871187e-17 	1.12719533666722 	0.0690974137640918 	2.47548464802401
3 	1.25022400101563 	6.04984812246911e-17 	1.12798400473462 	0.0665651401018734 	2.28513466601326
3 	1.30384562673186 	5.70290342727375e-17 	1.12875466514415 	0.0643801513755311 	2.10154356672335
3 	1.35943156962566 	5.46437894932694e-17 	1.12950407287258 	0.0625055188062128 	1.93063622261403
3 	1.41705378838763 	5.63785129692462e-17 	1.13022808382283 	0.0608794336052881 	1.77649291792487
3 	1.47678687776592 	6.24500451351651e-17 	1.13092378987149 	0.0594229264891553 	1.64095392192875
3 	1.53870816513278 	6.24500451351651e-17 	1.13159037145607 	0.0580529216332628 	1.52331766692279
3 	1.60289781058851 	6.07153216591882e-17 	1.13222679842178 	0.0566943178197478 	1.42207863548989
3 	1.66943891073267 	5.89805981832114e-17 	1.13283036373952 	0.0552871450531962 	1.33622735935824
3 	1.73841760623657 	5.20417042793042e-17 	1.13339843988087 	0.0537838221109665 	1.26416853258233
3 	1.8099231933566 	4.85722573273506e-17 	1.13392849069468 	0.0521467788182806 	1.20384999641437
3 	1.88404823953249 	4.68375338513738e-17 	1.13441962602997 	0.0503489196831978 	1.1536763524061
3 	1.96088870322038 	1.73472347597681e-17 	1.13482936044898 	0.048494468413878 	1.11455185899932
3 	2 	2.08166817117217e-17 	1.13499819517386 	0.0475951702793303 	1.09832493087919
3 	2.02024009608346 	2.42861286636753e-17 	1.13513289923608 	0.0469243069512219 	1.08905683353673
3 	2.06000503604194 	2.77555756156289e-17 	1.1353454902267 	0.0457042690942615 	1.0737892484236
3 	2.09836474743796 	2.77555756156289e-17 	1.13549512719068 	0.0446136169319555 	1.06321430920574
3 	2.13536888877257 	2.77555756156289e-17 	1.13562886275907 	0.0435395052092674 	1.05539302049223
3 	2.17106536369585 	2.77555756156289e-17 	1.13574309057616 	0.0424840076190539 	1.05015959445191
3 	2.20550038302044 	2.77555756156289e-17 	1.13583879302653 	0.0414487794704596 	1.04738984662675
3 	2.23871852454378 	2.42861286636753e-17 	1.13591771232423 	0.0404350969140889 	1.0469933789865
3 	2.27076279075613 	2.08166817117217e-17 	1.13598132357962 	0.0394438963917708 	1.04890795490851
3 	2.30167466450941 	2.08166817117217e-17 	1.13603098180486 	0.0384758176792126 	1.0530955900525
3 	2.33149416271872 	1.73472347597681e-17 	1.13606797328579 	0.0375312471293638 	1.05953990001855
3 	2.36025988816627 	1.38777878078145e-17 	1.1360935116973 	0.0366103586351692 	1.06824438124175
3 	2.38800907947441 	1.38777878078145e-17 	1.13610873805992 	0.0357131511643439 	1.07923141227404
3 	2.41477765931296 	1.38777878078145e-17 	1.1361147230417 	0.0348394824099747 	1.09254183535761
3 	2.44060028090273 	1.38777878078145e-17 	1.13611246904824 	0.0339890984925576 	1.10823502860978
3 	2.46551037287587 	1.38777878078145e-17 	1.13610291222716 	0.0331616598873435 	1.12638941588156
3 	2.48954018255081 	1.38777878078145e-17 	1.13608692456335 	0.0323567638849022 	1.14710338911599
3 	2.51272081767801 	1.38777878078145e-17 	1.13606531608998 	0.0315739639586974 	1.17049664010521
3 	2.53508228671038 	1.38777878078145e-17 	1.13603883721574 	0.0308127864369785 	1.19671191727795
3 	2.55665353765073 	1.38777878078145e-17 	1.13600818116285 	0.0300727448743335 	1.22591724024601
3 	2.57746249552636 	1.38777878078145e-17 	1.13597398650207 	0.0293533525017586 	1.25830862159844
3 	2.59753609853934 	1.38777878078145e-17 	1.13593683976531 	0.0286541331101779 	1.2941133629227
3 	2.6169003329393 	1.38777878078145e-17 	1.13589727811275 	0.0279746306954398 	1.33359401120128
3 	2.6355802666639 	1.38777878078145e-17 	1.13585579202971 	0.0273144181655917 	1.37705308348815
3 	2.6536000817905 	1.38777878078145e-17 	1.13581282802793 	0.0266731053850791 	1.42483869304662
3 	2.67098310584103 	1.73472347597681e-17 	1.13576879132598 	0.0260503468058908 	1.47735123992789
3 	2.68775184198056 	2.08166817117217e-17 	1.13572404848442 	0.0254458489122438 	1.53505136439198
3 	2.70392799814879 	2.08166817117217e-17 	1.13567892997193 	0.0248593776821695 	1.59846940384634
3 	2.71953251516198 	2.08166817117217e-17 	1.13563373263988 	0.0242907662445107 	1.66821664446021
3 	2.73458559382185 	2.08166817117217e-17 	1.13558872208357 	0.023739922880698 	1.74499871878474
3 	2.74910672106653 	2.08166817117217e-17 	1.1355441348686 	0.0232068394833722 	1.829631572127
3 	2.76311469519732 	2.08166817117217e-17 	1.1355001806015 	0.0226916005331299 	1.92306050465677
3 	2.776627650214 	2.08166817117217e-17 	1.13545704382288 	0.0221943925830975 	2.02638289471946
3 	2.78966307929018 	2.08166817117217e-17 	1.13541488570126 	0.0217155141389525 	2.14087532276876
3 	2.80223785741904 	1.73472347597681e-17 	1.13537384550465 	0.0212553856767156 	2.26802594546167
3 	2.81436826325886 	1.38777878078145e-17 	1.13533404182644 	0.0208145593360546 	2.40957311598586
3 	2.82607000020648 	1.38777878078145e-17 	1.13529557354259 	0.0203937275435802 	2.56755140947676
3 	2.83735821672614 	1.38777878078145e-17 	1.13525852047928 	0.0199937294367258 	2.74434639182008
3 	2.84824752595991 	1.38777878078145e-17 	1.13522294377613 	0.019615553452198 	2.94275966951475
3 	2.85875202464507 	1.38777878078145e-17 	1.13518888594116 	0.0192603337962212 	3.16608598905094
3 	2.86888531136304 	1.38777878078145e-17 	1.1351563706133 	0.0189293377225055 	3.41820444661414
3 	2.87866050414343 	1.38777878078145e-17 	1.13512540207813 	0.018623939629684 	3.70368629127052
3 	2.88809025744591 	1.38777878078145e-17 	1.13509596462479 	0.0183455770179461 	4.02792249765883
3 	2.89718677854204 	1.38777878078145e-17 	1.13506802188706 	0.0180956824423075 	4.39727551574517
3 	2.90596184331819 	1.38777878078145e-17 	1.13504151637394 	0.0178755849710062 	4.81926185700976
3 	2.91442681151997 	1.38777878078145e-17 	1.13501636945611 	0.0176863745744544 	5.30277627027072
3 	2.92259264145801 	1.38777878078145e-17 	1.13499248211568 	0.0175287236242887 	5.85837553895387
3 	2.93046990419395 	1.38777878078145e-17 	1.13496973676535 	0.0174026614622772 	6.49865251967674
3 	2.93806879722526 	1.73472347597681e-17 	1.13494800037551 	0.0173073006787804 	7.23875225342481
3 	2.94539915768638 	2.08166817117217e-17 	1.13492712899906 	0.017240516575083 	8.0971170485454
3 	2.95247047508335 	2.08166817117217e-17 	1.13490697355918 	0.0171985825512555 	9.09660500239279
3 	2.9592919035784 	2.08166817117217e-17 	1.13488738649478 	0.0171757607944563 	10.2662218120778
3 	2.96587227384055 	2.08166817117217e-17 	1.13486822859232 	0.0171638348077194 	11.6438682130924
3 	2.97222010447726 	2.08166817117217e-17 	1.13484937514081 	0.017151540579169 	13.2807947100306
3 	2.97834361306218 	2.08166817117217e-17 	1.13483072042597 	0.0171237941581541 	15.2489995522843
3 	2.98425072677325 	2.08166817117217e-17 	1.1348121789549 	0.0170605011797287 	17.6538926440119
3 	2.98994909265477 	2.08166817117217e-17 	1.13479367979171 	0.0169345159251019 	20.6568529975041
3 	2.99544608751689 	2.08166817117217e-17 	1.13477515067554 	0.016707870125184 	24.5174930311702
3 	3.00074882748522 	2.08166817117217e-17 	1.13475650941995 	0.0163243606854842 	29.6791882967512
3 	3.00586417721304 	2.08166817117217e-17 	1.13473761673783 	0.0156942253511193 	36.9558797132396
3 	3.01079875876789 	2.42861286636753e-17 	1.13471759046063 	0.0146612426004024 	47.9852596170534
3 	3.01555896020418 	2.77555756156289e-17 	1.1346930278852 	0.0129352174212402 	66.5077964639113
3 	3.02015094383282 	2.77555756156289e-17 	1.13466062624416 	0.0100431851173535 	102.95558399023
3 	3.02458065419862 	2.77555756156289e-17 	1.13462607984925 	0.00597798514158362 	200.753010213319
3 	3.02885382577583 	2.77555756156289e-17 	1.13460155718048 	0.00224516702305574 	694.275309558089
