1.00000000000453e-06 	1.00195556483898 	0 	0.0965340850174487 	-0.000172774687492227 	-1.50415086927111e-22
1.00000000000453e-06 	1.00593833258374 	0 	0.290653645539933 	9.84534280537479e-05 	-2.41022570857297e-22
1.00000000000453e-06 	1.01006700077429 	0 	0.459955897940233 	0.00153148494526915 	-1.19745665009451e-22
1.00000000000453e-06 	1.0143469141712 	0 	0.574039256123781 	0.00365412735306689 	3.24300502277216e-23
1.00000000000453e-06 	1.01878361332929 	0 	0.641265151798027 	0.00594915464682081 	3.26569956661112e-23
1.00000000000453e-06 	1.02338284177015 	-3.46944695195361e-18 	0.681675320039913 	0.00822323569388897 	-5.7742835665586e-23
1.00000000000453e-06 	1.02815055341735 	-6.93889390390723e-18 	0.707669756016752 	0.0103753829226229 	8.76062715368453e-25
1.00000000000453e-06 	1.03309292030413 	-6.93889390390723e-18 	0.725599656178805 	0.0123848744688611 	5.94877645497722e-23
1.00000000000453e-06 	1.03821634056339 	-6.93889390390723e-18 	0.738765411630969 	0.0142635830412515 	6.90960403606859e-24
1.00000000000453e-06 	1.04352744671036 	-1.04083408558608e-17 	0.748969542608739 	0.0160280172381651 	-6.51293465070339e-23
1.00000000000453e-06 	1.04903311422874 	-1.04083408558608e-17 	0.757252416005673 	0.0176943096525516 	-6.17517802991136e-23
1.00000000000453e-06 	1.05474047047132 	-6.93889390390723e-18 	0.764245850300399 	0.0192768733783561 	-1.94570239604554e-23
1.00000000000453e-06 	1.06065690388671 	-3.46944695195361e-18 	0.770350758772149 	0.0207879582308424 	2.49260400081614e-23
1.00000000000453e-06 	1.06679007358401 	-3.46944695195361e-18 	0.775831151546979 	0.0222377185464509 	4.9854141177071e-23
1.00000000000453e-06 	1.07314791924792 	-6.93889390390723e-18 	0.780866430881736 	0.0236344641968553 	3.58808154119275e-23
1.00000000000453e-06 	1.07973867141705 	-3.46944695195361e-18 	0.785581825026467 	0.024984930313548 	5.41501996820439e-16
1.00000000000453e-06 	1.08657086213875 	0 	0.790066814683045 	0.0262945170262576 	5.81307422703362e-16
1.00000000000453e-06 	1.09365333601424 	0 	0.794386680955187 	0.0275674903995828 	-4.61867133996598e-16
1.00000000000453e-06 	1.10099526164836 	3.46944695195361e-18 	0.798589963208861 	0.0288071468204048 	-5.01672568286845e-16
1.00000000000453e-06 	1.10860614351884 	6.93889390390723e-18 	0.802713403680744 	0.0300159462717742 	-1.35128943655485e-23
1.00000000000453e-06 	1.11649583428022 	3.46944695195361e-18 	0.806785302457194 	0.031195620405125 	-4.56715829456107e-23
1.00000000000453e-06 	1.12467454751866 	6.93889390390723e-18 	0.8108278410577 	0.0323472607492455 	-3.08589711579843e-23
1.00000000000453e-06 	1.13315287097387 	1.73472347597681e-17 	0.8148587216009 	0.0334713914919222 	1.33675971923335e-23
1.00000000000453e-06 	1.1419417802455 	2.08166817117217e-17 	0.818892342635335 	0.0345680303322335 	2.25376978317972e-24
1.00000000000453e-06 	1.15105265300152 	1.38777878078145e-17 	0.822940655620551 	0.0356367402524271 	-3.60880520578528e-23
1.00000000000453e-06 	1.1604972837072 	1.04083408558608e-17 	0.82701379777132 	0.0366766746998732 	-3.68367220500067e-23
1.00000000000453e-06 	1.17028789889366 	1.38777878078145e-17 	0.831120566018587 	0.0376866183020467 	-1.25267831532101e-23
1.00000000000453e-06 	1.1804371729856 	1.73472347597681e-17 	0.835268776424657 	0.0386650248598849 	0
1.00000000000453e-06 	1.19095824470904 	2.42861286636753e-17 	0.83946553966412 	0.0396100540444932 	-2.10754311022812e-23
1.00000000000453e-06 	1.20186473410003 	2.42861286636753e-17 	0.843717473832937 	0.0405196079196341 	-4.21508399111656e-23
1.00000000000453e-06 	1.21317076013637 	2.08166817117217e-17 	0.848030869391265 	0.0413913681152235 	-2.10754087899212e-23
1.00000000000453e-06 	1.22489095901542 	2.08166817117217e-17 	0.852411816531777 	0.0422228341739926 	0
1.00000000000453e-06 	1.23704050310128 	2.08166817117217e-17 	0.85686630208448 	0.0430113632866799 	-1.20437618619747e-24
1.00000000000453e-06 	1.24963512056619 	2.42861286636753e-17 	0.861400280813119 	0.0437542113378197 	-2.41315341095425e-24
1.00000000000453e-06 	1.26269111575139 	2.77555756156289e-17 	0.866019724345259 	0.0444485749450338 	-1.20439543082526e-24
1.00000000000453e-06 	1.27622539027388 	2.77555756156289e-17 	0.870730649789308 	0.0450916340656264 	0
1.00000000000453e-06 	1.29025546490643 	2.77555756156289e-17 	0.87553912920256 	0.045680594853193 	0
1.00000000000453e-06 	1.30479950225895 	2.77555756156289e-17 	0.88045128045518 	0.046212732373805 	-4.12504157695573e-23
1.00000000000453e-06 	1.31987633029101 	3.12250225675825e-17 	0.885473239859941 	0.0466854321792071 	-3.93755314152213e-23
1.00000000000453e-06 	1.33550546668544 	3.81639164714898e-17 	0.890611117311625 	0.0470962295528096 	8.84450312814988e-23
1.00000000000453e-06 	1.35170714411495 	3.81639164714898e-17 	0.895870935177979 	0.0474428458179667 	1.72527014584172e-22
1.00000000000453e-06 	1.3685023364343 	3.81639164714898e-17 	0.901258552361581 	0.0477232214239235 	1.72756451574657e-22
1.00000000000453e-06 	1.38591278583198 	4.16333634234434e-17 	0.906779574746102 	0.0479355455339964 	1.31086668170558e-22
1.00000000000453e-06 	1.40396103097652 	4.16333634234434e-17 	0.912439252892508 	0.0480782817646073 	4.42779440117284e-23
1.00000000000453e-06 	1.42267043619387 	3.81639164714898e-17 	0.918242367671461 	0.0481501894313065 	-1.82567054678583e-22
1.00000000000453e-06 	1.44206522171365 	3.12250225675825e-17 	0.924193104619809 	0.0481503393121849 	-3.65176888789017e-22
1.00000000000453e-06 	1.46217049502345 	3.12250225675825e-17 	0.930294918245847 	0.0480781228715539 	-1.82590885559037e-22
1.00000000000453e-06 	1.48301228337162 	2.77555756156289e-17 	0.936550388299002 	0.0479332541555968 	1.92708701510578e-22
1.00000000000453e-06 	1.50461756746086 	2.42861286636753e-17 	0.942961070960598 	0.0477157639369669 	4.84291974666906e-22
1.00000000000453e-06 	1.52701431637603 	2.77555756156289e-17 	0.94952734864848 	0.0474259860536605 	2.89645509759799e-22
1.00000000000453e-06 	1.55023152379144 	3.46944695195361e-17 	0.956248282534057 	0.0470645362552725 	-1.03540527259237e-22
1.00000000000453e-06 	1.57429924550461 	3.81639164714898e-17 	0.963121472075309 	0.046632284233911 	-2.06758969991558e-22
1.00000000000453e-06 	1.59924863834497 	3.46944695195361e-17 	0.970142925897492 	0.0461303199282034 	-2.09560003444981e-22
1.00000000000453e-06 	1.62511200050782 	4.16333634234434e-17 	0.977306948006615 	0.0455599156503651 	-2.14063061453683e-22
1.00000000000453e-06 	1.65192281336593 	4.5102810375397e-17 	0.984606042393171 	0.0449224860301428 	2.28604234021934e-22
1.00000000000453e-06 	1.67971578481283 	3.81639164714898e-17 	0.992030837449532 	0.0442195481307082 	7.86481828690467e-22
1.00000000000453e-06 	1.70852689419381 	3.81639164714898e-17 	0.999570029171011 	0.0434526842940686 	4.48148685550265e-22
1.00000000000453e-06 	1.73839343888296 	4.16333634234434e-17 	1.00721033877896 	0.0426235099990008 	0
1.00000000000453e-06 	1.76935408256639 	4.5102810375397e-17 	1.01493647637347 	0.0417336480162038 	0
1.00000000000453e-06 	1.80144890529426 	4.85722573273506e-17 	1.02273109831127 	0.0407847115005953 	0
1.00000000000453e-06 	1.83471945536634 	4.85722573273506e-17 	1.03057474012781 	0.0397783114984835 	0
1.00000000000453e-06 	1.86920880311829 	4.5102810375397e-17 	1.03844571881186 	0.0387159968398476 	9.54376172643702e-25
1.00000000000453e-06 	1.9049615966783 	5.20417042793042e-17 	1.04631868197236 	0.0375992260682549 	1.85332579611007e-24
1.00000000000453e-06 	1.94202411976624 	5.8702771376512e-17 	1.05416238966186 	0.036429390391289 	9.55039218075218e-25
1.00000000001227e-06 	1.98044435161019 	1.38777878078145e-17 	1.0619405578007 	0.0352077613354102 	0
1.00000000001227e-06 	2.02024009608346 	1.38777878078145e-17 	1.06955159854611 	0.0339467320993577 	0
1.00000000001227e-06 	2.06000503604194 	6.93889390390723e-18 	1.07677563755631 	0.0326821591619955 	0
1.00000000001227e-06 	2.09836474743797 	0 	1.08342875963926 	0.0314491700348158 	0
1.00000000001227e-06 	2.13536888877258 	0 	1.08948119785438 	0.0302585394814738 	0
1.00000000001227e-06 	2.17106536369585 	3.46944695195361e-18 	1.09496611185082 	0.0291093277899109 	0
1.00000000001227e-06 	2.20550038302045 	3.46944695195361e-18 	1.09991531653566 	0.0280001998877155 	0
1.00000000001227e-06 	2.23871852454379 	-6.93889390390723e-18 	1.10435900060463 	0.0269297268182222 	0
1.00000000001227e-06 	2.27076279075614 	-1.38777878078145e-17 	1.10832551235506 	0.0258964112319873 	0
1.00000000001227e-06 	2.30167466450941 	-1.38777878078145e-17 	1.11184119801002 	0.0248987583860659 	0
1.00000000001227e-06 	2.33149416271873 	-1.04083408558608e-17 	1.11493028832705 	0.0239353166544354 	0
1.00000000001227e-06 	2.36025988816627 	-1.04083408558608e-17 	1.11761483063415 	0.0230046953858333 	0
1.00000000001227e-06 	2.38800907947441 	-1.38777878078145e-17 	1.11991466139404 	0.0221055712109788 	0
1.00000000001227e-06 	2.41477765931296 	-1.38777878078145e-17 	1.12184741195822 	0.0212366879666569 	0
1.00000000001227e-06 	2.44060028090273 	-1.38777878078145e-17 	1.12342854019564 	0.0203968530846289 	0
1.00000000001227e-06 	2.46551037287587 	-1.38777878078145e-17 	1.12467138177397 	0.0195849322639395 	0
1.00000000001227e-06 	2.48954018255081 	-1.38777878078145e-17 	1.1255872163187 	0.0187998435143394 	0
1.00000000001227e-06 	2.512720817678 	-1.38777878078145e-17 	1.12618534518994 	0.0180405511837162 	0
1.00000000001227e-06 	2.53508228671037 	-1.38777878078145e-17 	1.1264731790473 	0.0173060602999618 	0
1.00000000001227e-06 	2.55665353765073 	-1.04083408558608e-17 	1.12645633463875 	0.0165954113941427 	0
1.00000000001227e-06 	2.57746249552637 	-1.04083408558608e-17 	1.12613874130259 	0.0159076758807012 	0
1.00000000001227e-06 	2.59753609853934 	-1.04083408558608e-17 	1.12552275847863 	0.0152419520236399 	0
1.00000000001227e-06 	2.6169003329393 	-6.93889390390723e-18 	1.12460930604262 	0.0145973614979685 	0
1.00000000001227e-06 	2.6355802666639 	-1.38777878078145e-17 	1.1233980094565 	0.013973046552011 	0
1.00000000001227e-06 	2.6536000817905 	-2.08166817117217e-17 	1.12188736150168 	0.0133681677813644 	0
1.00000000001227e-06 	2.67098310584103 	-2.08166817117217e-17 	1.12007490166642 	0.0127819025344426 	0
1.00000000001227e-06 	2.68775184198057 	-2.77555756156289e-17 	1.11795741303391 	0.0122134439789714 	0
1.00000000001227e-06 	2.7039279981488 	-3.46944695195361e-17 	1.11553113473773 	0.011662000865592 	0
1.00000000001227e-06 	2.71953251516198 	-3.46944695195361e-17 	1.11279198574138 	0.0111267980263156 	0
1.00000000001227e-06 	2.73458559382185 	-3.46944695195361e-17 	1.10973579296182 	0.0106070776399384 	0
1.00000000001227e-06 	2.74910672106653 	-3.46944695195361e-17 	1.10635851378656 	0.0101021012823945 	0
1.00000000001227e-06 	2.76311469519732 	-3.46944695195361e-17 	1.1026564401137 	0.00961115275722865 	0
1.00000000001227e-06 	2.776627650214 	-3.46944695195361e-17 	1.09862636852357 	0.00913354167105992 	0
1.00000000001227e-06 	2.78966307929018 	-3.46944695195361e-17 	1.09426571942924 	0.00866860768376497 	0
1.00000000001227e-06 	2.80223785741905 	-3.81639164714898e-17 	1.08957258735184 	0.00821572532724413 	0
1.00000000001227e-06 	2.81436826325886 	-4.5102810375397e-17 	1.08454570497932 	0.00777430925509736 	0
1.00000000001227e-06 	2.82607000020648 	-4.85722573273506e-17 	1.07918430533008 	0.00734381976356148 	0
1.00000000001227e-06 	2.83735821672614 	-5.55111512312578e-17 	1.07348786883714 	0.0069237684161095 	0
1.00000000001227e-06 	2.8482475259599 	-6.24500451351651e-17 	1.06745574492266 	0.0065137236131447 	0
1.00000000001227e-06 	2.85875202464506 	-6.24500451351651e-17 	1.06108663987824 	0.00611331597508176 	0
1.00000000001227e-06 	2.86888531136304 	-6.24500451351651e-17 	1.05437796371717 	0.00572224345048496 	0
1.00000000001227e-06 	2.87866050414343 	-6.24500451351651e-17 	1.04732502719157 	0.00534027611761099 	0
1.00000000001227e-06 	2.88809025744591 	-6.24500451351651e-17 	1.03992007544048 	0.00496726071333981 	0
1.00000000001227e-06 	2.89718677854204 	-6.24500451351651e-17 	1.03215113578618 	0.00460312499331728 	0
1.00000000001227e-06 	2.90596184331819 	-6.24500451351651e-17 	1.0240006428945 	0.00424788209660475 	0
1.00000000001227e-06 	2.91442681151997 	-6.59194920871187e-17 	1.01544378331287 	0.00390163515304002 	0
1.00000000001227e-06 	2.92259264145801 	-6.93889390390723e-17 	1.00644647093738 	0.00356458242766161 	0
1.00000000001227e-06 	2.93046990419395 	-7.28583859910259e-17 	0.996962821433819 	0.00323702333876189 	0
1.00000000001227e-06 	2.93806879722526 	-7.63278329429795e-17 	0.986931930809069 	0.00291936570600715 	0
1.00000000001227e-06 	2.94539915768639 	-7.28583859910259e-17 	0.976273670858566 	0.00261213456775802 	0
1.00000000001227e-06 	2.95247047508335 	-6.93889390390723e-17 	0.964883074731109 	0.00231598282573053 	0
1.00000000001227e-06 	2.9592919035784 	-6.93889390390723e-17 	0.952622669553929 	0.00203170378143963 	0
1.00000000001227e-06 	2.96587227384056 	-6.93889390390723e-17 	0.939311767298863 	0.00176024523293332 	0
1.00000000001227e-06 	2.97222010447726 	-7.28583859910259e-17 	0.924711153320809 	0.00150272409952887 	0
1.00000000001227e-06 	2.97834361306218 	-7.97972798949331e-17 	0.908500629395855 	0.00126043957051029 	0
1.00000000001227e-06 	2.98425072677325 	-7.97972798949331e-17 	0.890245102785365 	0.00103488121344754 	0
1.00000000001227e-06 	2.98994909265478 	-7.63278329429795e-17 	0.86934157805295 	0.000827721520782904 	0
1.00000000001227e-06 	2.99544608751689 	-7.63278329429795e-17 	0.844932717153426 	0.000640769700073074 	0
1.00000000001227e-06 	3.00074882748522 	-7.97972798949331e-17 	0.815758340170467 	0.000475951019328745 	0
1.00000000001227e-06 	3.00586417721304 	-8.67361737988404e-17 	0.779883990341309 	0.000335747502367338 	0
1.00000000001227e-06 	3.01079875876789 	-9.0205620750794e-17 	0.734170318211569 	0.000223244463739085 	0
1.00000000001227e-06 	3.01555896020418 	-9.0205620750794e-17 	0.673187704501404 	0.000132459805596347 	0
1.00000000001227e-06 	3.02015094383281 	-9.71445146547012e-17 	0.587331412557472 	5.05632690063784e-05 	0
1.00000000001227e-06 	3.02458065419862 	-1.00613961606655e-16 	0.463637231069299 	-1.20525349567484e-06 	0
1.00000000001227e-06 	3.02885382577583 	-1.04083408558608e-16 	0.297648548651325 	-8.39615438504459e-07 	0
