/*--------------------------------*- C++ -*----------------------------------*\
  =========                 |
  \\      /  F ield         | OpenFOAM: The Open Source CFD Toolbox
   \\    /   O peration     | Website:  https://openfoam.org
    \\  /    A nd           | Version:  7
     \\/     M anipulation  |
\*---------------------------------------------------------------------------*/
FoamFile
{
    version     2.0;
    format      ascii;
    class       volSymmTensorField;
    location    "4000";
    object      bijDelta;
}
// * * * * * * * * * * * * * * * * * * * * * * * * * * * * * * * * * * * * * //

dimensions      [0 0 0 0 0 0 0];

internalField   nonuniform List<symmTensor> 
15600
(
(9.53367062590751e-05 -5.22376281135356e-07 -8.15106520538477e-25 -4.67641880583678e-05 -1.92944168503191e-23 -4.85579493590155e-05)
(0.00011685619565931 -4.49136767371711e-06 -8.80276220943006e-22 -5.73445438726212e-05 2.30341089059521e-23 -5.94938018611381e-05)
(7.61592129144489e-05 -1.27657086150335e-05 -4.90137493557683e-23 -3.67277877900748e-05 -1.27319036108268e-22 -3.94195980622492e-05)
(7.8473982503948e-06 -3.27020503543728e-06 1.51352101848294e-18 -3.41389851032344e-06 -3.67980424684835e-19 -4.43216995610613e-06)
(3.81378729846286e-06 -2.84179516288913e-06 -1.17510392317976e-18 -1.22532753213935e-06 5.47847233110707e-19 -2.58768338367014e-06)
(5.50885408118329e-06 -5.93951360824037e-06 4.7569530006774e-21 -9.1462965538082e-07 -2.72700860837527e-21 -4.59284643407308e-06)
(2.46100239057468e-06 -3.41463651331044e-06 2.21935625435299e-21 1.01822412680806e-08 -1.63158318578326e-21 -2.47044342469464e-06)
(1.5252259317663e-06 -2.48905738974842e-06 3.2151769276252e-20 2.30022017747842e-07 -3.3596232489699e-21 -1.7547214804231e-06)
(1.07477620908614e-06 -1.96406411762358e-06 -1.82326244783773e-19 2.93362754045401e-07 1.72329374629388e-19 -1.36772860351453e-06)
(1.01668020744592e-06 -1.9118349650372e-06 -2.55224318927956e-19 3.12784686347595e-07 1.92553067449989e-19 -1.32906613407732e-06)
(1.04424542923264e-06 -1.91859888929557e-06 -3.59589903825445e-20 2.93456085802793e-07 4.18781280564343e-21 -1.33730028482697e-06)
(1.18905254506449e-06 -2.09809541885557e-06 -5.51704111611171e-25 2.80061507179298e-07 4.1525637902071e-25 -1.46867340615733e-06)
(1.37939648417139e-06 -2.35847838242733e-06 2.0671985699671e-22 2.77898900587107e-07 -1.15266311604495e-23 -1.6567982955609e-06)
(1.67438018625248e-06 -2.79801786697546e-06 9.05007056982723e-21 2.97273585061599e-07 -6.91539416342018e-21 -1.97106239345826e-06)
(2.14529406695407e-06 -3.53036302471222e-06 -7.87656472987859e-21 3.47400331862909e-07 5.94479984251868e-21 -2.49194674002909e-06)
(2.88309382059706e-06 -4.6939219893867e-06 4.14514884113393e-23 4.36237228158851e-07 -8.13105854346897e-24 -3.31833544856133e-06)
(3.93540840416982e-06 -6.30769505300575e-06 -2.90479651902023e-21 5.36295902483937e-07 1.47550776538183e-21 -4.47036306361037e-06)
(5.42831775801336e-06 -8.35626334708318e-06 -6.74699326612007e-21 5.35229667608293e-07 5.0690405863564e-21 -5.96175871913526e-06)
(7.54870422169085e-06 -1.08392772556387e-05 1.3291649599022e-20 2.86249715965793e-07 -7.7681892604562e-21 -7.83260392147858e-06)
(1.04301805321006e-05 -1.35516968545988e-05 1.20469870959233e-20 -4.17508630142432e-07 -9.68684399922314e-21 -1.00096687010277e-05)
(1.41280324563504e-05 -1.60795651885725e-05 1.35338523549886e-21 -1.80603854385604e-06 -8.33999542950633e-22 -1.23182980534924e-05)
(1.88322638656067e-05 -1.81236368767703e-05 6.80950098249523e-22 -4.09119722498287e-06 8.03269169990712e-22 -1.47366452049188e-05)
(2.46170467775273e-05 -1.9462754746067e-05 -2.75920035361725e-20 -7.2987337346655e-06 1.0374427679409e-20 -1.731311858784e-05)
(3.10061455269754e-05 -1.95371420596167e-05 -2.99421654511412e-20 -1.12001531825078e-05 1.17027878806e-20 -1.98000517348863e-05)
(3.7344950012794e-05 -1.7892326927339e-05 -1.41491595502793e-20 -1.53819104584172e-05 6.08996499825546e-21 -2.19564519600294e-05)
(4.30305378960311e-05 -1.44542814842736e-05 7.88835012922014e-20 -1.93239039859053e-05 1.22095497812964e-19 -2.36995233420664e-05)
(4.7416619954023e-05 -9.23913942249224e-06 5.03630507570898e-19 -2.24617287478937e-05 8.16614738661526e-20 -2.49474062357615e-05)
(5.79330681751428e-05 -4.13355964487288e-06 7.2679175467706e-19 -2.81587336781592e-05 -1.95296831227331e-19 -2.97654039827373e-05)
(8.01038971115302e-05 -1.54436994671948e-06 2.37977103504317e-20 -3.92115727669397e-05 -1.84530369743019e-19 -4.0880059100336e-05)
(9.92333860543005e-05 -1.19986489328541e-06 -8.63752463279267e-29 -4.86438113255363e-05 6.3749769192224e-28 -5.05744008911131e-05)
(0.000109497174882679 -9.07768727962481e-07 -3.03842375407663e-20 -5.36803690360565e-05 2.25925116942132e-19 -5.58000641532069e-05)
(0.000115084841090547 -6.9322084116519e-07 1.33456611591204e-18 -5.64219877401783e-05 2.28434415316227e-19 -5.86452580134315e-05)
(0.000116889932704387 -5.33613447873595e-07 1.56649390717329e-18 -5.73079012460547e-05 -2.37439455881513e-19 -5.95641604231015e-05)
(0.000115974581495113 -3.96602843281385e-07 3.14780903768921e-20 -5.68594157774584e-05 -2.34903968967232e-19 -5.90974347141402e-05)
(0.00011289965813427 -2.8125217899743e-07 7.36890724080566e-23 -5.53519577889538e-05 -1.04898850953329e-25 -5.75304394873845e-05)
(0.000108198680927294 -1.8204755389121e-07 7.21083249359804e-23 -5.30471585948711e-05 -4.34337706933833e-26 -5.51349801841526e-05)
(0.000102260038948689 -9.74260288517508e-08 -6.98176885417139e-23 -5.01354859030704e-05 2.57168324781129e-24 -5.21089188065527e-05)
(9.54274544362823e-05 -2.59154902835166e-08 2.41413273445156e-20 -4.67854967643205e-05 -2.07635450077372e-19 -4.8627368002594e-05)
(8.799139546543e-05 3.31450185121346e-08 -1.36073141119941e-18 -4.31396294244707e-05 -2.06295774823852e-19 -4.48383132017149e-05)
(8.02055289761223e-05 8.0495561345774e-08 -1.43263531253811e-18 -3.93222631262774e-05 1.86511420004132e-19 -4.08710033225954e-05)
(7.22864456436418e-05 1.17007401286779e-07 -2.01688986082656e-20 -3.54395951985027e-05 1.84266808131965e-19 -3.68357986003745e-05)
(6.4416871782822e-05 1.43645152716325e-07 1.56813416832243e-23 -3.1581216573157e-05 -4.17618214121961e-24 -3.28258064828474e-05)
(5.67473824294655e-05 1.61507430492942e-07 -4.14830205311164e-23 -2.78209527851704e-05 -1.22082074731027e-25 -2.89177534506405e-05)
(4.93985514411143e-05 1.71720828215423e-07 6.47155170613825e-23 -2.42179191711217e-05 2.54469235914645e-25 -2.51730795908474e-05)
(4.24636389581223e-05 1.75433311213701e-07 -1.23892944227263e-23 -2.08178386153793e-05 -1.83711564825864e-24 -2.16393079011285e-05)
(3.60113406056793e-05 1.73745278796243e-07 -1.25380155244651e-20 -1.76543900306702e-05 1.4541508815376e-19 -1.83514445910334e-05)
(3.00888808417875e-05 1.67694964972365e-07 9.12655490994635e-19 -1.47507250254494e-05 1.4200421711819e-19 -1.53335552896985e-05)
(2.47249999389402e-05 1.58226411685771e-07 8.78558782282628e-19 -1.21209326686708e-05 -1.13660171224924e-19 -1.26002868061811e-05)
(1.9932934904298e-05 1.46183018219437e-07 8.94111971373597e-21 -9.77150102325355e-06 -1.10266570463281e-19 -1.01583860604443e-05)
(1.57131570933131e-05 1.32299819133487e-07 -1.18309839818195e-23 -7.70265947722802e-06 -6.69913590918149e-25 -8.00809494733402e-06)
(1.20558962586571e-05 1.1720617233597e-07 1.77205533383298e-23 -5.90961627423296e-06 -3.38947994758037e-25 -6.14443646913184e-06)
(8.94337140145638e-06 1.01429904137085e-07 -5.25303014970295e-21 -4.38365229496713e-06 7.5287818582406e-20 -4.55835146428574e-06)
(6.35172826532894e-06 8.54066484499218e-08 4.09136033360212e-19 -3.11307098235647e-06 7.06382766010155e-20 -3.23768588006816e-06)
(4.25269407583464e-06 6.94877825893736e-08 3.47272622061595e-19 -2.08400964799986e-06 -4.57372766337269e-20 -2.16803395260148e-06)
(2.61495625578749e-06 5.39519035724511e-08 3.30109235174478e-21 -1.28111542862285e-06 -4.13378038857722e-20 -1.33344075493093e-06)
(1.40528768663679e-06 3.90140945807732e-08 1.26077686081789e-26 -6.88096875563203e-07 -9.15838225226315e-26 -7.16975696853104e-07)
(5.89444257757645e-07 2.48493529351683e-08 -7.41547764199194e-28 -2.88163080925708e-07 3.09395466003799e-26 -3.01190810552143e-07)
(1.32870077598323e-07 1.15636693807482e-08 -1.18834685682597e-25 -6.43712096703541e-08 -3.35046850213054e-26 -6.84783223767004e-08)
(1.2805229990552e-09 -8.07692810065415e-10 2.60316951708518e-26 8.61368885143585e-11 -3.08049051125368e-26 -1.36624997158648e-09)
(1.61148882889282e-07 -1.2254605565709e-08 -5.53711862954687e-26 -7.83528349675848e-08 -2.02915468012835e-26 -8.27712140740901e-08)
(5.80041656320241e-07 -2.27219373831673e-08 -2.19100179782901e-25 -2.83785287827476e-07 5.59762774704835e-26 -2.96167509354045e-07)
(1.22678332176696e-06 -3.21468531449793e-08 1.25982026201871e-24 -6.00927329183077e-07 -7.93914916370162e-26 -6.25668273329962e-07)
(2.07157084072354e-06 -4.05459896041814e-08 4.66545622298729e-25 -1.01516689750876e-06 -6.8656984842847e-26 -1.05608708540338e-06)
(3.08599531394789e-06 -4.7939361474868e-08 -2.04864404717631e-24 -1.51257495792482e-06 1.04362766605684e-25 -1.57294842430261e-06)
(4.24305966130632e-06 -5.43501759213686e-08 -8.49214389821064e-27 -2.07991523864406e-06 -1.68834072551298e-25 -2.16249560909818e-06)
(5.51712438479154e-06 -5.98085706373047e-08 -3.95341702591378e-24 -2.70461719402121e-06 2.34989786959925e-25 -2.81166360732979e-06)
(6.88384366978054e-06 -6.43474991950617e-08 4.42433601744478e-24 -3.37474455122147e-06 1.74000676454789e-25 -3.50804659932735e-06)
(8.32006408774005e-06 -6.80011263289878e-08 -1.18473663069123e-26 -4.07894566016652e-06 -2.35746505323879e-25 -4.23984634646147e-06)
(9.80371139550466e-06 -7.08031231532596e-08 0 -4.80639798184962e-06 0 -4.9958145194098e-06)
(1.13136495930498e-05 -7.27846946065691e-08 0 -5.5467389967833e-06 0 -5.76518086903303e-06)
(1.28295397083209e-05 -7.39744617062944e-08 0 -6.28999694879453e-06 0 -6.53758128899264e-06)
(1.43316590754329e-05 -7.43951671553523e-08 7.14175092328885e-21 -7.02650226861745e-06 1.03496413471745e-19 -7.30296569799514e-06)
(1.58007494826496e-05 -7.40663855318176e-08 6.81569116568117e-19 -7.74681307142449e-06 2.1372452888897e-19 -8.05152071344133e-06)
(1.72177753236808e-05 -7.29968652608571e-08 1.35555779052566e-18 -8.44159666324356e-06 -6.28136062591331e-21 -8.77354633330457e-06)
(1.85637938681657e-05 -7.11947736555422e-08 6.65134683906053e-19 -9.10156579439795e-06 -2.37648792254775e-19 -9.45938997296573e-06)
(1.98195831229261e-05 -6.86469460732203e-08 -9.78953368716122e-21 -9.71729643282182e-06 -1.21115967360939e-19 -1.00992566101132e-05)
(2.09656299764897e-05 -6.53510167972247e-08 3.10336725000243e-23 -1.02792215579085e-05 1.40978107816963e-24 -1.0683203137112e-05)
(2.19814356041157e-05 -6.12568018800941e-08 -8.90723171734317e-24 -1.07772912431899e-05 2.91561217810363e-26 -1.12007837897317e-05)
(2.28459193011257e-05 -5.63623040243373e-08 1.29803121433563e-20 -1.1201169584404e-05 1.32401656188988e-19 -1.1641256990352e-05)
(2.35358665327822e-05 -5.05491357917047e-08 7.84773393732671e-19 -1.15394755883499e-05 1.31913045197014e-19 -1.19927927467885e-05)
(2.40277843876412e-05 -4.38587064526997e-08 7.07067889410049e-19 -1.17806900485741e-05 -1.37005254713206e-19 -1.22434209454441e-05)
(2.42937199021892e-05 -3.61028724603855e-08 -1.42554285701581e-20 -1.19111088710479e-05 -1.35610363935394e-19 -1.23788969906401e-05)
(2.43086688646981e-05 -2.75839205774318e-08 3.37587688206775e-23 -1.19184690162024e-05 -1.68982726720773e-24 -1.23864835318045e-05)
(2.40414245612678e-05 -1.75727612153739e-08 -1.70149718668045e-23 -1.17874739501532e-05 1.63431363957447e-26 -1.22502751610213e-05)
(2.34629094241875e-05 -6.59571913575987e-09 -1.70836682183461e-23 -1.15038563381786e-05 -4.69464832271525e-26 -1.19554660874828e-05)
(2.25224788148335e-05 7.07237408617927e-09 -1.16187453654779e-22 -1.10427940680424e-05 4.75470125494034e-24 -1.14762415300104e-05)
(2.1192671090034e-05 2.13125924892282e-08 1.79110484960185e-22 -1.03907985273826e-05 3.09788729991196e-25 -1.07986326488654e-05)
(1.93999786577396e-05 4.0005734341185e-08 -6.3500192728055e-23 -9.51184208360974e-06 -9.28178665452293e-24 -9.88517072632721e-06)
(1.71444279310436e-05 5.72573621311626e-08 -5.81625078235086e-23 -8.40586947983032e-06 8.39549245937862e-24 -8.73593740788654e-06)
(1.43199404020422e-05 8.26435165869234e-08 1.53777487706956e-22 -7.02084999695508e-06 3.76108794389423e-24 -7.29690111582344e-06)
(1.10437387790913e-05 1.02955059568028e-07 -6.54050327254668e-25 -5.41401113072008e-06 -4.67991865830493e-24 -5.62803906779285e-06)
(7.08442929957461e-06 1.30692686195996e-07 3.37102630887382e-23 -3.46937927364012e-06 7.2661685097019e-25 -3.61396572778634e-06)
(3.19974638926445e-06 2.50840892835652e-07 1.40006637672022e-27 -1.55609631269306e-06 1.35220751816899e-24 -1.6431570801477e-06)
(2.24646298765085e-06 4.1259794206757e-07 8.1814213615194e-23 -1.06943780090694e-06 -2.81124549014259e-22 -1.17667214979527e-06)
(2.57493292892423e-06 8.74888870062367e-07 -6.25280783158097e-21 -1.15651296654127e-06 -1.35759608731793e-21 -1.41799452148243e-06)
(3.02079886296377e-06 1.45975663253199e-06 5.81304118832688e-21 -1.24279235443672e-06 1.46748168690132e-21 -1.77747321323355e-06)
(3.77891639701676e-06 2.41184113845781e-06 -2.50391279380358e-20 -1.3561640709899e-06 -1.04185409679338e-20 -2.42202564566512e-06)
(4.70348548585831e-06 3.7453168420497e-06 -1.59486943384813e-20 -1.3856840630487e-06 -5.9106372302124e-21 -3.31680628141104e-06)
(5.83244939221024e-06 5.61598434248091e-06 1.49466777184052e-20 -1.26898976894291e-06 8.15764862786002e-21 -4.56209085913318e-06)
(7.39184704502915e-06 8.3145834568317e-06 -1.55162908637386e-20 -1.00193502699837e-06 -9.47610077759166e-21 -6.38799542774344e-06)
(9.36411566925234e-06 1.18933182269078e-05 1.2876053692244e-23 -5.34734449789977e-07 1.73319309147337e-21 -8.82673293475347e-06)
(1.1742600375461e-05 1.62892237685111e-05 1.80348431079392e-20 1.04020358262004e-07 1.16022063950556e-20 -1.1843067458158e-05)
(1.45299677136045e-05 2.14222645909637e-05 -1.38751781434921e-20 8.60634657502595e-07 -1.10470861570177e-20 -1.53859861136473e-05)
(1.7876990582416e-05 2.72676345141184e-05 1.14906423579934e-21 1.59238581056913e-06 -2.61910804070712e-23 -1.94635367479962e-05)
(2.12533441587381e-05 3.29606016839675e-05 -1.69084992337917e-20 2.21679565864577e-06 -1.3497742915432e-20 -2.34631001833654e-05)
(2.39682849523096e-05 3.77610958445316e-05 -1.89707966812363e-21 2.85795792081056e-06 -1.29114268254802e-21 -2.68181966095109e-05)
(2.6070539890688e-05 4.2015092185591e-05 -1.57044016632088e-21 3.68200427701931e-06 -1.05868799243707e-21 -2.97436201892527e-05)
(2.77326318690326e-05 4.60483322391828e-05 -1.21357053644869e-21 4.74579558619242e-06 -8.00310963215718e-22 -3.24686858753045e-05)
(2.91712813291151e-05 5.02187729325577e-05 -1.69248517942233e-20 6.09045833086751e-06 -1.20687792966214e-20 -3.52511632533659e-05)
(3.09499067247427e-05 5.54559735914329e-05 -1.15630198793307e-21 7.80796423625161e-06 1.92397961919129e-22 -3.87462459247132e-05)
(3.52576423427248e-05 6.46267868240317e-05 -1.07747231714928e-20 9.77733448966298e-06 -9.95199201994026e-21 -4.50214690408964e-05)
(4.50072967518986e-05 7.99182082606193e-05 -1.28707159609454e-20 1.08212836873044e-05 -1.0452619497651e-20 -5.58118352141163e-05)
(6.26438020927486e-05 0.000101480857121307 1.19582903235524e-20 8.99168173989809e-06 1.01127875681373e-20 -7.16139974847665e-05)
(9.72243240805327e-05 0.000134160575914013 2.57453199101761e-21 2.78502918668488e-08 8.40628051218998e-22 -9.72230045540515e-05)
(0.000166053080945898 0.000180173555837578 -2.98613214939591e-20 -2.70028307415618e-05 -1.8381804541782e-20 -0.000139008543470622)
(0.000296989961307446 0.000224001878192429 1.53209419913453e-20 -9.48099079576587e-05 7.80495884321968e-21 -0.00020211941146216)
(0.000377923712248764 0.000165860941569505 1.65292210631875e-21 -0.000162567336715181 4.52687842844024e-22 -0.000215291781539721)
(0.000282820471365145 5.67955153348998e-05 1.04836178565504e-22 -0.000135465693358955 -2.31280261421816e-22 -0.000147310580412307)
(0.000142415786828349 7.13935297818236e-06 -8.5953653355068e-22 -6.98995016314143e-05 -3.32121493161526e-23 -7.24945346614824e-05)
(8.92911153418163e-05 -2.98634369927613e-07 -2.23153416393529e-25 -4.37985512694043e-05 1.65210173418467e-23 -4.54789190321983e-05)
(0.00169291412642573 -4.11095233457287e-06 7.40869550255814e-24 -0.000831410641377291 -1.41892003136514e-25 -0.000861245085682793)
(0.00163745192861678 -5.1457454811746e-05 2.38213721249255e-20 -0.000807232542197979 -4.45069305387268e-22 -0.000829970370406076)
(0.00128293755666622 -0.000161695584500052 6.66982868309092e-19 -0.000627266621934888 2.12630747160428e-18 -0.000655474272783303)
(0.000523121436089038 -0.00014580009792211 -3.0850424933491e-17 -0.0002432403284494 6.02810483740581e-18 -0.000279797160096855)
(2.92300786984739e-06 1.59099655268199e-06 -3.14137938190106e-18 2.30561278232803e-07 -2.89435237057485e-18 -3.15262326651208e-06)
(4.35012803584792e-05 -5.81846052668705e-05 8.45895715294822e-19 -1.28882263618659e-06 9.81325487298235e-20 -4.21997965172169e-05)
(2.96601633127862e-05 -4.59929694446494e-05 -4.05119627068156e-20 2.72956365011967e-06 2.98714081127247e-20 -3.2380011987812e-05)
(2.0759301785798e-05 -3.76129411760596e-05 -8.38118139086041e-19 5.32421741004142e-06 4.9759644311889e-20 -2.60756957047789e-05)
(1.63503987409748e-05 -3.28824953526958e-05 -1.15567735391228e-17 6.32644974362368e-06 9.15612772294674e-18 -2.26700467903919e-05)
(1.64283012426113e-05 -3.36665309502836e-05 -1.08968087923483e-17 6.83213821023711e-06 1.00578173707887e-17 -2.32534627163598e-05)
(1.82531380636431e-05 -3.58259427866788e-05 1.12234092589761e-18 6.61667866828408e-06 -1.37780973096477e-19 -2.48623572787982e-05)
(2.18254479464026e-05 -4.06724646675741e-05 6.00580333813069e-24 6.53883951875457e-06 -4.90094583067856e-24 -2.83557798804346e-05)
(2.65813018585833e-05 -4.75028274447296e-05 6.55237549208892e-21 6.67316126210942e-06 -4.24267204734549e-22 -3.32444887766253e-05)
(3.33512607766453e-05 -5.79376097038264e-05 -1.88750509982469e-19 7.3186665903121e-06 1.40113116850711e-19 -4.0657728828455e-05)
(4.3020227093305e-05 -7.35612486392011e-05 -1.18007084876858e-19 8.69456327819083e-06 8.71590975830467e-20 -5.16992790366513e-05)
(5.60624747573226e-05 -9.52827332749162e-05 1.10601980379898e-20 1.09704842974121e-05 -3.73209524317668e-22 -6.70128531881916e-05)
(7.28277279093069e-05 -0.000122260523213801 -1.38767412931666e-19 1.3394574871927e-05 1.21149645694902e-19 -8.61964412627032e-05)
(9.49248706337093e-05 -0.000153044969683295 3.78410057459507e-19 1.37868632633693e-05 -2.81120204183126e-19 -0.000108679126898309)
(0.000123761812476532 -0.000185620606660711 -2.3316240517227e-19 9.89349842603523e-06 1.58631515296008e-19 -0.000133615222327012)
(0.000160557537732458 -0.000216427555032697 -2.38646324221092e-19 -9.90541052336047e-07 1.84968578378281e-19 -0.000159519136153224)
(0.000207321844983196 -0.000241836148941646 3.03848525304058e-19 -2.16842047680551e-05 -2.13314260564566e-19 -0.000185581960059107)
(0.000265306331562757 -0.000258343411967664 -1.99229340468454e-19 -5.36717218619763e-05 6.44839369700042e-20 -0.000211571132013408)
(0.000331472536743627 -0.000262377515171018 2.6938188138737e-19 -9.48283418622451e-05 -1.04124477803998e-19 -0.00023657321581873)
(0.000401775147084273 -0.000250605695264316 5.25671679411341e-19 -0.000141906674246429 -1.91671138917799e-19 -0.000259790527884983)
(0.000471625716506205 -0.00022106422832238 2.39251155862065e-22 -0.000190693834857957 1.36903604313956e-20 -0.000280847618936296)
(0.000538495884472192 -0.000175308985311147 -1.26339109175692e-18 -0.000237217037190605 -1.8648954547411e-18 -0.000301188481700518)
(0.000614667827010716 -0.000116629654238694 -5.17776998342704e-17 -0.000285467377908211 4.77384774688163e-18 -0.000329101708715852)
(0.000660158859189064 -5.537377725358e-05 -5.09438353538142e-17 -0.000316102658650244 5.71904431323047e-18 -0.000343953004317902)
(0.000690628225084914 -2.32140023423336e-05 -1.76680576268591e-19 -0.000336055595723089 2.05839295171099e-18 -0.000354466278843121)
(0.000710740079927097 -1.10989584227286e-05 1.41931584574942e-27 -0.000347776551114092 -1.27782365802176e-26 -0.000362854661527818)
(0.000707425040857554 -2.79483435478281e-06 2.57916106463622e-19 -0.000346449187599602 -2.0607781307935e-18 -0.000360867582156195)
(0.000685705388330444 2.46908819860535e-06 -5.6002238511471e-17 -0.0003359528123574 -2.06881953952858e-18 -0.00034964767118121)
(0.000652640974976166 6.02723240576757e-06 -5.60981384108046e-17 -0.000319789859012502 1.60860354375809e-18 -0.000332751280595948)
(0.000611527213557161 8.46535676777696e-06 -2.79564019280684e-19 -0.00029964168541431 1.88866856449658e-18 -0.000311791981193799)
(0.00056555334950282 1.00838867385919e-05 1.02186294307221e-23 -0.000277095191478635 1.25461984518863e-22 -0.000288371637880806)
(0.00051736671336837 1.11076274972854e-05 3.92695773852927e-23 -0.000253456702670411 -7.76251163821314e-23 -0.000263830853526184)
(0.000468536841618601 1.16712774559925e-05 -2.02471434831072e-23 -0.000229500718885882 -3.85417517788068e-23 -0.0002389644262352)
(0.000420044832877441 1.18674813713776e-05 -2.23148854366068e-19 -0.000205711082755445 1.49131654518592e-18 -0.000214269462854413)
(0.000372675454144326 1.1768303901498e-05 4.15220350272993e-17 -0.000182473965073251 2.60843442923449e-18 -0.000190144440034161)
(0.000327057233283894 1.14325472451266e-05 4.01240474801214e-17 -0.000160098203161887 -3.26834551816608e-20 -0.000166908952428509)
(0.000283684431481738 1.09109049308058e-05 1.93028801751963e-19 -0.000138826358989695 -1.22512588879411e-18 -0.000144814623760041)
(0.000242939104984657 1.02468611957881e-05 -2.98152521204009e-22 -0.000118845745514688 -1.18455465916976e-23 -0.000124056138906241)
(0.000205107169647557 9.47841243937552e-06 3.77414462724504e-22 -0.00010029635993827 4.24348116500191e-23 -0.000104779372753765)
(0.00017039257175983 8.63812795162226e-06 -3.47923468015716e-22 -8.32779261051339e-05 -4.07109746068183e-24 -8.70885164868331e-05)
(0.000138929286094863 7.75386686349578e-06 2.3932999670414e-22 -6.78558025348323e-05 -2.08230973877263e-23 -7.1052165778519e-05)
(0.000110791744328392 6.84896406149112e-06 1.50166599649609e-19 -5.40661396485124e-05 -8.81240149953813e-19 -5.67085904013317e-05)
(8.60040060129426e-05 5.94272183261855e-06 -2.29473176125727e-17 -4.19203909533168e-05 -2.29933866999592e-18 -4.40703926195959e-05)
(6.45477593104413e-05 5.05074766161809e-06 -2.05255811368259e-17 -3.14092554830706e-05 -8.46963222202698e-19 -3.31285642641352e-05)
(4.63693937525265e-05 4.18540236024699e-06 -1.22114846332248e-19 -2.25061521312039e-05 5.76163562373888e-19 -2.38560840803444e-05)
(3.13861735169723e-05 3.35619836639816e-06 7.98924855353916e-23 -1.51702529141943e-05 1.68703188330408e-23 -1.62110567993579e-05)
(1.94916688362391e-05 2.57020805025028e-06 -6.33599842442823e-23 -9.34914751342349e-06 -1.04328383018475e-23 -1.01394791748483e-05)
(1.05604857604234e-05 1.83243987273971e-06 9.92840357864336e-20 -4.9811621627341e-06 -2.90668038254785e-19 -5.57765013530243e-06)
(4.45237361220505e-06 1.14619379326311e-06 -5.33517434935565e-18 -1.9973714823516e-06 -1.56120836224227e-18 -2.45426577648516e-06)
(1.01576917048467e-06 5.13372559109916e-07 -2.64004440360039e-18 -3.23334391985333e-07 -1.26276448749331e-18 -6.92227089603571e-07)
(9.08148055701956e-08 -6.5230507646728e-08 -8.17911422556597e-20 1.19430260591353e-07 -1.33445934280246e-20 -2.10182005253881e-07)
(1.51190655099219e-06 -5.89704098908058e-07 2.26734006166812e-25 -5.87799548407513e-07 3.45778555443801e-25 -9.23829825919236e-07)
(5.10990935545011e-06 -1.06079083501478e-06 2.23771330640506e-25 -2.3620517800274e-06 6.77364346563497e-25 -2.74703338298858e-06)
(1.07145754620273e-05 -1.47917379105916e-06 2.16454625533855e-23 -5.11985782394033e-06 -3.18130348773273e-24 -5.59303955841144e-06)
(1.81565931519647e-05 -1.84484423026435e-06 -2.6399514583404e-23 -8.77824879389791e-06 1.66539230662739e-24 -9.37553141734756e-06)
(2.72683567773083e-05 -2.15973681724143e-06 1.100279861456e-23 -1.3254932921981e-05 -8.55440302994807e-25 -1.4009220668808e-05)
(3.78847769354084e-05 -2.42810733876691e-06 -3.19314192773397e-25 -1.84687903749003e-05 1.96609137596218e-26 -1.94101629292661e-05)
(4.98438760552996e-05 -2.65271364175143e-06 -2.85594900636504e-23 -2.43404302211146e-05 4.14922232799406e-24 -2.54957963303356e-05)
(6.29871084716022e-05 -2.83531263333515e-06 5.35827143284531e-23 -3.07921831142726e-05 -5.35645697670417e-24 -3.21852688110317e-05)
(7.71599107485267e-05 -2.97794109631745e-06 -2.0065246396938e-24 -3.77482720766143e-05 -2.54649480623881e-24 -3.93998175445363e-05)
(9.22116521066636e-05 -3.08259413086185e-06 -2.35889099096708e-23 -4.51348584228823e-05 3.64748262813614e-24 -4.7062673469719e-05)
(0.000107995570679952 -3.1510942798968e-06 8.53962438677886e-23 -5.28800029082717e-05 -2.49064529230476e-24 -5.5099036407622e-05)
(0.000124368536144031 -3.18504578127974e-06 -1.47450026151519e-22 -6.091354597612e-05 3.78781102403735e-24 -6.34359574773984e-05)
(0.000141190680441483 -3.18581587217699e-06 6.00506440100956e-23 -6.91669268399856e-05 -1.36432351581806e-24 -7.20021507959784e-05)
(0.000158324895292609 -3.15451146803411e-06 -6.41336454207458e-23 -7.75729359931817e-05 1.29199326304475e-24 -8.07277385557866e-05)
(0.000175636175798139 -3.09194996906253e-06 -1.3233409367324e-25 -8.60653931029404e-05 2.36642988449021e-27 -8.95439168335626e-05)
(0.000192990848352632 -2.99864676982235e-06 -7.04644413248313e-23 -9.45787668413628e-05 1.78631565642035e-23 -9.83825637903599e-05)
(0.000210255590047077 -2.87476183996265e-06 -1.28756731826244e-19 -0.000103047694246386 -1.45191648180461e-18 -0.000107175739863138)
(0.000227296361132439 -2.72010673621305e-06 -4.24784865443379e-17 -0.000111406454075936 -2.51387909493095e-18 -0.000115855147036389)
(0.000243976982325527 -2.53402784784277e-06 -8.72198938221617e-17 -0.000119588270852374 9.27811150013166e-19 -0.000124351402321541)
(0.000260157726255731 -2.31547840952958e-06 -4.46020273204437e-17 -0.000127524616558501 3.67365785323157e-18 -0.000132593327720715)
(0.000275693175550455 -2.06273213964856e-06 1.57332850398488e-19 -0.000135144166607893 1.68490540548954e-18 -0.000140506852671134)
(0.000290430456668106 -1.77367139928462e-06 -7.36068457235052e-22 -0.000142371914359253 6.75490060711293e-23 -0.000148014133627896)
(0.000304205745757964 -1.44503711289508e-06 3.98091718985317e-22 -0.00014912747783061 1.953532726579e-23 -0.000155031753749811)
(0.000316842335264735 -1.07339884229823e-06 -1.95331875105191e-19 -0.000155324102974755 -1.84718432049819e-18 -0.000161469786509448)
(0.000328144377711605 -6.53155580595436e-07 -5.14036949534897e-17 -0.000160865653511553 -1.77371142621962e-18 -0.000167228550617508)
(0.000337895770859092 -1.7957975874044e-07 -5.14049206300317e-17 -0.000165645984360938 1.97655290349085e-18 -0.000172198121895124)
(0.000345808091386621 3.55987207469233e-07 2.12723703608794e-19 -0.000169523560842393 1.96516916572773e-18 -0.000176231655760021)
(0.000351395314828654 9.56061503651332e-07 -1.81665250394967e-22 -0.000172259435861094 2.46588641338107e-23 -0.000179082148949873)
(0.000354371828171496 1.6381396683964e-06 1.28214587937876e-21 -0.000173712952462798 -4.49851142222138e-23 -0.00018060468888335)
(0.000354476988835449 2.40898905807037e-06 -1.12568690837098e-21 -0.000173755008396308 -1.05624468656123e-22 -0.00018066777468616)
(0.00035119182102387 3.3071323990219e-06 1.2351285026606e-21 -0.000172130338122785 1.10397922614968e-22 -0.000179007775197756)
(0.000344005778167512 4.32589294906515e-06 -2.92208473709484e-21 -0.00016858551634555 1.604286550688e-23 -0.000175367646266526)
(0.000332070667360194 5.54056798690565e-06 1.69121352606029e-21 -0.000162702107786019 -2.33139366615749e-23 -0.000169317759166384)
(0.000314699141449767 6.90669346471138e-06 1.68072716483338e-21 -0.000154134249210741 8.59459538967804e-23 -0.000160516732403321)
(0.0002904549349922 8.59154805447203e-06 -2.76917408927356e-21 -0.000142164345201134 -7.72438708694748e-23 -0.000148246111509784)
(0.000258105270117015 1.05109690524381e-05 5.40631538096489e-25 -0.000126156513136312 4.16958336125086e-24 -0.000131909180268951)
(0.000215161199922845 1.28582260701936e-05 3.21671138799112e-23 -0.000104686237017447 1.8994467084924e-24 -0.000110441827043699)
(0.000169682959642028 1.87020146617097e-05 1.2996656810938e-20 -8.16099643677694e-05 1.12037910853876e-21 -8.80465786589989e-05)
(0.000146097680367353 2.76700747854195e-05 9.96477973884604e-20 -6.87913867283231e-05 1.29023535244875e-20 -7.72831063883887e-05)
(0.000134444288357546 4.0630724000678e-05 2.16703828027377e-19 -6.06865126265636e-05 5.21428790285152e-20 -7.37356528228449e-05)
(0.000131942935104914 5.50594511522559e-05 -6.85851279281381e-20 -5.59295634805459e-05 -3.73789369325938e-20 -7.59905721727715e-05)
(0.000131931709821846 7.21653296114776e-05 3.89402614198115e-19 -5.06843685595234e-05 1.2120929775248e-19 -8.12229719338096e-05)
(0.000134247010057964 9.20067453869638e-05 3.58354005698428e-19 -4.47172984602856e-05 1.64793992441174e-19 -8.95028580549074e-05)
(0.000137812340505418 0.00011536002753446 -3.54112081279023e-19 -3.70085799499827e-05 -1.69748228077147e-19 -0.000100773525474284)
(0.000144010164824052 0.000143714380718574 3.53837394041323e-19 -2.77495917144744e-05 1.78216055687374e-19 -0.000116225701911884)
(0.000153645750620571 0.00017811939726382 -3.32305775697067e-19 -1.6985845953519e-05 -2.02199803610488e-19 -0.000136618914893607)
(0.000167425447459259 0.000218659827565459 -3.12803642781771e-19 -5.29719345261111e-06 -2.0518869562262e-19 -0.000162079625256196)
(0.000185190944338937 0.000265044932448824 1.24130984225663e-19 7.06500701370831e-06 8.76418620122469e-20 -0.00019219828610029)
(0.000208128391047496 0.000317314522326211 -1.54218739706887e-19 1.89957216467414e-05 -9.7416085858634e-20 -0.000227055989085151)
(0.000235329127571035 0.000372919887215778 2.77320503046002e-19 2.97165438396233e-05 2.21079965559001e-19 -0.000264966173608795)