/*--------------------------------*- C++ -*----------------------------------*\
  =========                 |
  \\      /  F ield         | OpenFOAM: The Open Source CFD Toolbox
   \\    /   O peration     | Website:  https://openfoam.org
    \\  /    A nd           | Version:  7
     \\/     M anipulation  |
\*---------------------------------------------------------------------------*/
FoamFile
{
    version     2.0;
    format      ascii;
    class       volScalarField;
    location    "4000";
    object      epsilon;
}
// * * * * * * * * * * * * * * * * * * * * * * * * * * * * * * * * * * * * * //

dimensions      [0 2 -3 0 0 0 0];

internalField   nonuniform List<scalar> 
15600
(
0.665342013545174
0.609079232584695
0.373280532266393
0.163623447564037
0.0469348907223338
0.0266874440336176
0.0284964198368573
0.0219831870615412
0.0168035799457332
0.0138923179407471
0.0118740511314914
0.0106723745636802
0.0101930728883902
0.0103712548812862
0.0112570116999219
0.012862767597234
0.0151628672960883
0.0179652243181368
0.0212429550202715
0.0249324321846904
0.0288624187830184
0.0328362320529298
0.0371137326843424
0.0418705938843314
0.0469303819224659
0.0523088567698777
0.0580907006136081
0.0645485237069925
0.0810285040260673
0.102997345469455
0.121659207190023
0.137920136103275
0.152746328120524
0.166271417059704
0.178242542040967
0.188872966521227
0.198250481683138
0.20641440060164
0.213411323068927
0.219292869596641
0.224119675972112
0.227958837177266
0.230883487907156
0.232969718209218
0.234295074397348
0.234936221262265
0.234967627053281
0.234460152066976
0.233480279403431
0.232089494416787
0.230344012985425
0.228294674907624
0.225987072085891
0.223461697589694
0.220754359096465
0.217896613466912
0.214916375025863
0.211837922842673
0.208681745584207
0.205465504676049
0.202202889955313
0.19890509648061
0.195581750761683
0.192239971720835
0.188885170973904
0.185521280024291
0.182150780099066
0.178774814925931
0.175393271424925
0.172004820643409
0.168606974132154
0.165196035707556
0.161767146467331
0.158314094167086
0.154829405022229
0.15130386806759
0.147726841650561
0.144085135387328
0.140363999816727
0.136544502078432
0.132607269820647
0.128515122395959
0.124256669113832
0.119866218715471
0.115286630710805
0.110417221445459
0.105192800947301
0.0994711040374665
0.0931696519016425
0.0860755044578416
0.0777688196585311
0.0669360147273765
0.0599621500409796
0.0646991565426156
0.0719479254620927
0.0823961208936241
0.0944779432242775
0.108903744641404
0.126487765223563
0.148251380162496
0.172081330827746
0.197980298412165
0.225209782388315
0.253019687383149
0.276624287662899
0.299173246398809
0.323082219590097
0.349931975993623
0.382472827947943
0.428393568348399
0.499754584612415
0.589808549806112
0.702088100575918
0.856788927524271
1.05625506687928
1.20587068830269
1.02195185632901
0.800593406687767
0.635849354823925
0.651098641076643
2.39638136087864
2.20248083320012
1.53451103957007
0.694379370325097
0.187669121746705
0.0982079061018125
0.103797581071979
0.0807341112281147
0.0617178568997532
0.0509257343457476
0.0434915171492058
0.039049174920606
0.0372401000818075
0.0378601314036847
0.0411049520542478
0.0470174017790125
0.055452005305914
0.065725646220884
0.0776574041674509
0.0908547705911274
0.104571940249133
0.118258356395376
0.132650517782153
0.14800262718315
0.163929448087054
0.180909752513446
0.200983308461047
0.232615505785288
0.287968890684262
0.346107475254494
0.392668808900389
0.432459497596978
0.467977554969979
0.5002487347473
0.528570336957655
0.553337320353542
0.574805638109891
0.593210882803707
0.60877448259052
0.621703317015701
0.632201637135638
0.640469414234435
0.646703853700095
0.651096330082743
0.653831433831912
0.655084616367377
0.655021149630819
0.653794842016757
0.651547573243545
0.648408962013428
0.644496462905202
0.639915649942135
0.63476079417139
0.629115442014292
0.623053389853571
0.616639710844156
0.609932019032938
0.602980368143925
0.595826815197458
0.588507527349096
0.581050955393908
0.573479801370799
0.565813132039857
0.55806519931024
0.550246403552345
0.542363769625756
0.534421045528226
0.526418875016021
0.518354910648726
0.510223842768599
0.502017427749007
0.493724326463551
0.485330051073526
0.476816505629721
0.468161913823562
0.459339792268515
0.450319076898322
0.441061872520477
0.431524453360086
0.421652203474101
0.411385122141452
0.400639211701654
0.389493469868146
0.377999954864956
0.365904193249457
0.352947497196174
0.338894120960217
0.32339010830565
0.306063269891036
0.286393369330823
0.263041576288564
0.232215864064451
0.208504935098264
0.215879533833312
0.23798118319598
0.270409619902008
0.309128767812126
0.355960463406438
0.413535814088104
0.484605155964756
0.563767646199304
0.650488328615548
0.742838891697158
0.83836263440939
0.924324372039245
1.00844488015091
1.09836589346989
1.19964465109136
1.32141287599332
1.48824695506918
1.73801402845553
2.0524963393361
2.43899885212848
2.94414882198548
3.55897330268684
4.05123752590931
3.84809926825703
3.30121423444931
2.65948189451703
2.45486862664286
3.24132965537779
2.91107136274074
2.32938215024758
1.37976479442112
0.397638148616839
0.181662859938952
0.18284125668223
0.145623664666117
0.112908726575646
0.0933412656563076
0.0796980942162534
0.0713188197457429
0.0676614697556662
0.0683065620735054
0.0734489084017446
0.0828524388728138
0.0957700717411448
0.110526960293377
0.126185615772418
0.141627957544455
0.155709963249829
0.168055365335941
0.180014382384282
0.192585166472984
0.206310445904901
0.22278766780324
0.244805281059038
0.274754725220313
0.318992209289664
0.364564819219824
0.402151020604911
0.434910877118894
0.463900908307957
0.488380951333966
0.510049591764176
0.529249917914086
0.546115501461297
0.56079898366995
0.573439297997801
0.584167652665522
0.593113959166188
0.600406809499063
0.606173980260945
0.610541123837174
0.61363084813221
0.615561402773438
0.616445736871834
0.616390612330106
0.615496044505688
0.613854910005764
0.611552788316257
0.608667956878357
0.605271566400472
0.601427908526966
0.597194884779078
0.592624553880474
0.587763725386689
0.582653837944892
0.57733062403364
0.571824934926116
0.566162820819823
0.560366117878026
0.554453274394093
0.548439422091748
0.542336596300487
0.536154027469799
0.529898290404037
0.523573423034515
0.51718100765093
0.510720207499245
0.504187765113448
0.49757793239421
0.49088236388136
0.48408989946266
0.477186321940867
0.470153907739382
0.462971003164305
0.455611166785797
0.448042507601032
0.440226046845227
0.432115010920707
0.423658383744745
0.414663329278845
0.405066544503935
0.394917354839189
0.384040109887428
0.37222821711987
0.359176466270284
0.344535774388799
0.327677524178129
0.307884531916352
0.281504317505447
0.260430057526633
0.26562107748045
0.28382571428235
0.31420644959062
0.354081344852321
0.403989340822431
0.466179215154859
0.542424208204105
0.629808867600678
0.726759111791521
0.831869526231699
0.94290593012107
1.05336330708672
1.1675023992556
1.29268487962966
1.4357832834665
1.60585571257471
1.82175200944368
2.10761538406206
2.44649335723382
2.82297949816255
3.22234198793682
3.60554109477611
3.881189096448
3.86992227180027
3.76479152621554
3.62204456703428
3.50380439062614
2.76977142149495
2.49068929335291
2.17764990866453
1.72334740105731
0.716058169027859
0.265887762536482
0.226296938991284
0.185855427912449
0.148708569702716
0.123846828834889
0.105726765902716
0.094044945574395
0.0882308106948005
0.0876137575253144
0.0919327590579909
0.100172307325658
0.110738799519141
0.12164321214871
0.132033573814103
0.141342673867524
0.149373103697119
0.156616669966542
0.164407885379636
0.173660077221141
0.185124784756303
0.200252379285257
0.220820691288782
0.247606903025121
0.281845234063979
0.31559427876178
0.344052066455242
0.369056149919723
0.390906343882993
0.40969163476518
0.426549759238287
0.441595495125228
0.454913068020217
0.46659868938513
0.476742035355386
0.485431374519379
0.492755925523557
0.498805835315079
0.503671822665233
0.507444239679172
0.510212098078635
0.512062079195419
0.513077678567432
0.51333849553842
0.512919705817638
0.511891694343893
0.510319854170451
0.508264507584135
0.505780960188154
0.502919657665657
0.499726454818571
0.496242928171028
0.492506742608058
0.488551320023323
0.484405872426184
0.480095942624599
0.475643700570547
0.471068198517267
0.466385731777772
0.461610121055785
0.45675280967889
0.451823057278764
0.446828081050451
0.441773158542212
0.436661703112586
0.431495313640933
0.426273788482438
0.420995112807387
0.41565539256804
0.410248765293544
0.404767218056502
0.399200400136804
0.393535248991493
0.387755676872954
0.381841837178344
0.375769670194393
0.369509203327331
0.363030505295549
0.35623119181976
0.348930928206733
0.341208193666287
0.332995056036132
0.324159019290948
0.314507431038284
0.303796508808169
0.291610170916746
0.277491174106635
0.259199876058177
0.243393920784907
0.243471607070754
0.254611444944847
0.276090944512201
0.306456330825773
0.345427771837187
0.394152681993009
0.453450046877778
0.522010110903697
0.59843568714273
0.681700725008653
0.770260480361964
0.86156688794112
0.95740270692922
1.06230954168221
1.18138890552627
1.32086145652912
1.49060220027166
1.69986798528296
1.93808385901827
2.18886351593007
2.42849975337939
2.63620695223384
2.80459249396708
2.89440124338786
2.90666347823164
2.95516592096871
2.9546931565915
2.26270496259244
2.06063957074429
1.87690016868059
1.76399204294629
1.04517611230685
0.374058450613214
0.235632370188735
0.191087469448383
0.157221509017548
0.131997509718968
0.112733541774881
0.0998059409605481
0.0927322188126231
0.0907951998385869
0.0933776937149339
0.0991478396336526
0.106463005022338
0.113837154586769
0.120765092598909
0.127033857035366
0.132783335427453
0.138600850305479
0.145424788442281
0.153955090625142
0.164968624998464
0.179686267557818
0.199310723177319
0.223993695139303
0.25208132302861
0.27831132108767
0.300934561021691
0.321018203765442
0.338627262630965
0.354127057640621
0.36811406773267
0.380642498287299
0.39177554829895
0.401582825218538
0.410130686722194
0.417486386651927
0.423718775318285
0.428898314957796
0.433096455198782
0.436384877443008
0.438834588362402
0.440515105860052
0.441493707923248
0.441834834540647
0.441599618325056
0.44084555569405
0.439626312554011
0.437991628829273
0.435987331845199
0.43365544342195
0.431034356955207
0.428159053602806
0.425061266102554
0.421769149629286
0.418307615776784
0.414698634387781
0.410961526347896
0.407113112301027
0.403167916815325
0.399138447653175
0.395035276969781
0.390867187718733
0.386641297619855
0.382363152114778
0.378036795385127
0.373664823665598
0.369248409727575
0.364787313650466
0.360279847759007
0.35572283946544
0.351111508398246
0.346439377110667
0.34169799710883
0.336876814262984
0.331962595766076
0.3269393079394
0.321786608830017
0.316484456706988
0.310974866502321
0.305124972019833
0.298950729423604
0.292431119244515
0.285485458505952
0.277992544318362
0.269786024951365
0.2606051600961
0.250129233777366
0.237053302724755
0.224722846807093
0.221863170771859
0.228401398033905
0.243802685218866
0.267056995293481
0.2976262613107
0.335993905953841
0.382477483900237
0.436354669608152
0.496549472498372
0.562234404755046
0.63228801708428
0.705605527629146
0.783045240406972
0.867301796080725
0.961817878137443
1.0707637877867
1.19957793444754
1.35174547637489
1.52098139107192
1.69591270565359
1.85854919305489
1.99778286659317
2.12241644098289
2.2407348035598
2.30129784612118
2.36443485752823
2.37648663919959
1.89675005355286
1.74963339456026
1.62323059347769
1.66477458990189
1.26803930360881
0.516408191776521
0.243241912439482
0.182027388269259
0.150838010281739
0.12730477714056
0.109023183245098
0.0965809326400294
0.0895443450544453
0.0872547161650562
0.0889503480564229
0.0932856942754945
0.0987978349521082
0.104399363231845
0.109755552154573
0.114793348843344
0.119754565936254
0.125182043596092
0.131772925554484
0.140120299838405
0.150969658490974
0.165323825653992
0.183978748814179
0.206556212838766
0.230330332391709
0.251831456903235
0.270745530890666
0.28767220916331
0.302653149700013
0.316026131918455
0.328123845691016
0.338982964265089
0.348654173627085
0.357192298879978
0.364650606504324
0.371084221557803
0.37655007635665
0.381106942871602
0.384814722482725
0.38773379235446
0.389924172300782
0.391444816710661
0.392352945111313
0.39270351763055
0.392548814594787
0.391938139594855
0.39091763988469
0.389530209599759
0.387815487272595
0.385809936102991
0.38354697182767
0.38105713883953
0.378368028907714
0.375504238876928
0.372487699468338
0.369337864154806
0.366071966483542
0.362705130645633
0.359250510410069
0.355719533007179
0.352121980890004
0.348466112824531
0.344758773498882
0.341005479570539
0.337210487509331
0.333376847905868
0.329506436878671
0.325599978735816
0.321657032298453
0.31767598027685
0.313653950049538
0.309586771358439
0.305468784253962
0.301292780239368
0.297049583807039
0.292728043306613
0.288313867512098
0.28379287415758
0.279129672620505
0.274235326223077
0.269096822279794
0.26370708039484
0.258017293952956
0.251950502523554
0.245393707854705
0.238180953224127
0.230084929707387
0.220362819764419
0.210593953571608
0.20653726098205
0.210221781047757
0.221620215254695
0.240003584421825
0.264786475792082
0.296086743660096
0.333941633204842
0.377857662505445
0.426999934089093
0.480672278889261
0.538012753277385
0.598525684499838
0.662743384783751
0.732360856216694
0.809755900682613
0.897865298624064
0.999958088849658
1.11713231176321
1.24525535303693
1.37662814616081
1.49836745745342
1.60367094958552
1.70265143976935
1.81743421149048
1.9012133953508
1.96762734103718
1.97587198238854
1.63657295088517
1.52506253834367
1.42954283776452
1.52445706420333
1.36754615498985
0.672742635474762
0.265759599583413
0.174562212380717
0.142450959856391
0.120412709373894
0.103459697096872
0.091925859573256
0.0853423699128056
0.0830824203796629
0.0843317965089016
0.0878208002687092
0.0922762303991808
0.0968698212387823
0.101368145789831
0.105775548668051
0.110370391435176
0.115639585474526
0.122140524812557
0.130398696606535
0.141092620247192
0.155022063213231
0.172660714591227
0.193260342993226
0.213888720437672
0.2322648098639
0.248685402522507
0.263477110745306
0.27668277911274
0.288569950216653
0.299336913617963
0.309014438963364
0.317644649753415
0.325273087632758
0.331944741275365
0.337706928463528
0.342608870957857
0.346701718391396
0.350037811978782
0.352670087421202
0.354651299960562
0.356033382137637
0.356866833325214
0.357200244151299
0.357079913119655
0.356549573736243
0.355650229086764
0.354420058117264
0.352894406709087
0.351105851791092
0.34908431504832
0.346857127330957
0.344448915424308
0.341881744263999
0.339175379528809
0.336347424821174
0.333413545001628
0.330387561457891
0.327281561163124
0.324106105420372
0.320870314235404
0.317581972885382
0.314247631002413
0.31087268371545
0.307461437442303
0.304017164660197
0.300542140360238
0.297037672063185
0.29350410157573
0.289940810646589
0.286346173883432
0.282717544057367
0.279051122403636
0.275341940250071
0.27158356362688
0.267768131608661
0.263885503651049
0.259925523002716
0.255865549860816
0.251646548503771
0.247246205254027
0.242661667863982
0.237863866032918
0.232804796107824
0.227409218306532
0.221571958595203
0.215132477621759
0.207694388295677
0.199903175289568
0.19555452914775
0.197462068799655
0.206108692490967
0.221023434300842
0.241661370498043
0.267938807015353
0.299726991222743
0.336628320151232
0.377973337419918
0.423162376485682
0.471507034049405
0.522806842259358
0.577476127865956
0.636658073011485
0.702061446764614
0.775854299092065
0.860132268975152
0.954884088880426
1.05709698524196
1.16137888657578
1.2583289546272
1.34327766363323
1.42478804699697
1.52699249584243
1.61720422308876
1.68792950453619
1.69698629416084
1.44340411691591
1.35591904325525
1.28109002299152
1.38329866882602
1.40147931704023
0.821016362412168
0.307849012985903
0.173390578079974
0.136299412271019
0.114856307769106
0.0989096619928084
0.0881343784989454
0.0819614527282695
0.0797543801917855
0.0806780233348392
0.083556180111457
0.0872772543952849
0.0911861394144831
0.0951188154614331
0.0991275843755001
0.103499686292865
0.108671054450995
0.115109766550372
0.123285429852739
0.133793817018308
0.14725350141396
0.163887239284583
0.18273570009012
0.201015373549396
0.217220553124868
0.231878711270085
0.24515498786442
0.257089934315279
0.267888869823886
0.277676569220869
0.286481220344055
0.294338733397826
0.301288347425668
0.30736942436424
0.312623923327305
0.317095778534284
0.320830896545379
0.323876413798716
0.32628012834623
0.328089766881114
0.329352383411592
0.330113790203038
0.3304181150879
0.330307445359638
0.329821572625026
0.328997839549476
0.327871050310668
0.326473459497563
0.324834829084805
0.322982527437297
0.32094146252897
0.318734096413495
0.316380622647371
0.313899182477959
0.311305978308141
0.308615468809559
0.305840458118751
0.302992191055449
0.300080533028694
0.297114056557998
0.294100139198663
0.291045055226634
0.287954053360612
0.284831421381817
0.28168054141631
0.278503930401143
0.275303275381938
0.27207944694822
0.268832516278246
0.265561732347137
0.262265526015129
0.258941427895925
0.25558607607763
0.252195015988282
0.248762764318125
0.245282207181002
0.24174619532482
0.238139993659001
0.234424334127104
0.230576713735145
0.226595704659631
0.222465093951946
0.21815681722344
0.213623216912211
0.208800414725846
0.203577745333405
0.19777642950262
0.191544884440543
0.187349368903568
0.18815824001834
0.194847553673085
0.207190068736815
0.224722346076774
0.247253517546227
0.274555079270873
0.306271405371817
0.341846355352444
0.380754391342
0.422431387825572
0.466833018897015
0.514329553514783
0.565744731397327
0.62235475636564
0.685820404389608
0.757540875649366
0.836951881070792
0.921678782033357
1.00778845235714
1.08820897903925
1.15941856870649
1.22808780080636
1.31647724305435
1.4043259699883
1.47728230972916
1.49068997324072
1.29298413580433
1.22286678047857
1.16401283353894
1.25464250175056
1.3916194828516
0.950676003659275
0.372102349370701
0.179787609490075
0.133163267263441
0.111183548549987
0.0957881865185143
0.0855025488503412
0.0795876021609131
0.077363232677765
0.0779809673181833
0.0803532536588121
0.0835001994852243
0.0868870538272667
0.0903993676662061
0.0941189894451235
0.0983283623622175
0.103419261007662
0.109796408395891
0.117877421201584
0.128171743866004
0.141142144654426
0.156823821528445
0.17416538913229
0.190658114384225
0.205296712755438
0.218663183352337
0.230825113123019
0.241816504321037
0.251794315020528
0.260840719739469
0.268982237631441
0.276250124978327
0.282679120317296
0.28830459146337
0.293164684530556
0.297299593172876
0.300751517144691
0.303563918474484
0.305780963974754
0.307446820398314
0.308605077529553
0.309298207434129
0.309567143704778
0.309450945245378
0.308986554029186
0.308208652097906
0.307149576231282
0.305839306890321
0.304305531038155
0.302573670880723
0.300666804151339
0.298605774636175
0.296409359709329
0.294094456103604
0.291676183290146
0.289168056616387
0.286582074740691
0.283928808970837
0.281217560945148
0.278456450647799
0.275652509158092
0.272811765313942
0.26993932116314
0.267039416092617
0.264115482832479
0.261170191326471
0.258205488252739
0.25522261966349
0.252222156762834
0.249203991988634
0.246167357254957
0.243110778675987
0.240032103603013
0.236928374397463
0.233795910348098
0.230629901936671
0.227425562018175
0.224173446768494
0.220847538682555
0.217429020917658
0.213917247535553
0.210304871440707
0.206578096009245
0.202709909070301
0.198665729086441
0.194373407190589
0.189791416506502
0.184807073833638
0.180976839733128
0.181128519386327
0.1863973474418
0.196774461247153
0.21189625640143
0.231522297544024
0.255366266181404
0.283092009799176
0.314222430465321
0.348290493251738
0.384825520793675
0.423870074002335
0.465776467986804
0.511174862995919
0.56105264698854
0.616719210218538
0.679129968582811
0.7474409236536
0.81967923024483
0.892863100464557
0.961499354912639
1.02270144515671
1.08144003416913
1.15719469009415
1.2386595618103
1.31107414715172
1.32953289405954
1.17111475084437
1.11431274888419
1.06860090433561
1.14168329402324
1.35216984346022
1.05309172733379
0.456863658317222
0.19479443390908
0.133162666009025
0.109288740265513
0.0939667360339688
0.083901254447402
0.0780828557964805
0.0757579499662863
0.0760615703078746
0.0779823119835069
0.0806462932779965
0.0836049516854838
0.0867794644444763
0.0902688618692597
0.0943437924229686
0.0993578342889196
0.105666633966841
0.113638009164667
0.12369817026019
0.136179825959038
0.150983992483179
0.167046218364824
0.182159293898692
0.195636614103598
0.208033150293623
0.219356288298373
0.229631210187055
0.238978240611236
0.247453628443799
0.255082415033855
0.261892293955926
0.267914682708139
0.273182046144228
0.277729774137469
0.28159538658364
0.284818445024662
0.287439805834809
0.289501060904966
0.291043849520693
0.292109294304135
0.292737478887189
0.292967041325875
0.292834852239063
0.29237578181021
0.291622565563452
0.29060572296749
0.289353550433234
0.287892182177318
0.286245529683887
0.284435293261719
0.282481088376035
0.280400606158451
0.278209778169207
0.275922876526784
0.273552670612553
0.271110515008196
0.268606437177508
0.26604927859225
0.263446783838198
0.260805690377745
0.258131811989076
0.255430112865242
0.252704771794764
0.249959239131003
0.247196283697404
0.244418035945105
0.241626018099773
0.238821177079899
0.236003895613616
0.233174021913406
0.230330853458667
0.227473179717638
0.224599213844491
0.221706690000349
0.218792609592891
0.215854100573132
0.212885484720871
0.209869956519913
0.206793405768052
0.203656332642599
0.200457749582802
0.197194359264131
0.193854868370564
0.190426107441882
0.186866297986023
0.183219465641985
0.179242839447051
0.175869341059243
0.17565777479568
0.179886715881866
0.188731175652818
0.201932747875251
0.219237932782487
0.240330795693768
0.264885855331261
0.292482607620697
0.322701222514625
0.355143806760524
0.389902408006461
0.427319704697604
0.467903712520378
0.512443494557586
0.561995602152023
0.61721764145546
0.677132961402377
0.740047259164446
0.803616853487806
0.863432164153716
0.916945473952803
0.96770978789634
1.03248620226763
1.10609584085692
1.17580402637126
1.19853428685245
1.069340341712
1.02316153620046
0.988446310467481
1.04409759430302
1.29290190233346
1.1251228767783
0.556855529416308
0.219921221889037
0.136525852363007
0.109046096945912
0.0932782878082912
0.0831741378766749
0.0772989230414784
0.0747925564405067
0.0747641703092475
0.0762629721318912
0.078499544166918
0.0810880762005351
0.0839749625755597
0.0872678237029182
0.0912218966446765
0.0961572584780831
0.102388949056688
0.110237282886676
0.120051789340374
0.132059272016502
0.146069352042953
0.161052929945789
0.175089495327394
0.187690724352939
0.199348320508273
0.210031598281174
0.219756149588837
0.22861439074827
0.236646051927163
0.243874682322929
0.250325198546459
0.256026516804289
0.261008975782792
0.265305978177728
0.268953152305885
0.271988210460372
0.274450194458111
0.276378905051478
0.277814221046775
0.278795539542665
0.279361264393479
0.279548408075226
0.279392280013119
0.278926259994751
0.278181671735851
0.277187705012225
0.275971421294769
0.274557764821977
0.272969497501512
0.271227280025045
0.269349791866164
0.267353887079652
0.265254745092609
0.263065971245735
0.260799741676359
0.258466893096785
0.256077011194312
0.253638559796549
0.251158970941752
0.248644733128726
0.246101472907187
0.243534028379518
0.24094651387877
0.238342378141745
0.23572445402282
0.233095004944411
0.230455761351197
0.227807959735012
0.225152365998844
0.222489314802325
0.219818716643737
0.217140114056476
0.214452659241023
0.211755225895203
0.209046273180846
0.206324515238908
0.20358708675866
0.200823786705601
0.198025157559753
0.195193265381225
0.19233189915968
0.189445656474265
0.186535346156226
0.183603753793004
0.180633294978267
0.17771965257114
0.1745638440573
0.171674205575729
0.171297383952115
0.174765421852602
0.182398874592392
0.19404163168888
0.209450441546591
0.228299419730904
0.250271256998494
0.274987296545689
0.302066596781818
0.331169456739801
0.362416019011026
0.396141019980349
0.432772588826979
0.472960351222444
0.517573434205906
0.567062331696613
0.620402547822579
0.676109767970862
0.732276140425858
0.78523795671092
0.832602083892749
0.876771774966134
0.932148192559411
0.997681619374556
1.06330710732741
1.0890557291273
0.982414808953296
0.944914418617947
0.919354637708454
0.9603732752714
1.22098611045202
1.16780725404153
0.663149322393539
0.257231094054109
0.143776824717
0.11044802696697
0.0936192738754741
0.083212690474436
0.0771310814164711
0.0743636256297182
0.0739790529398756
0.0750699918012369
0.0769129369314625
0.0791677426405968
0.081797878897275
0.0849133796906534
0.0887521997007504
0.0936045001687416
0.0997501898363508
0.107464894029992
0.117029607475804
0.128586794740392
0.141887713640898
0.155965869768764
0.169157036275056
0.18109110795993
0.192182237087775
0.202375603942691
0.211676474676592
0.220155851580247
0.22784241972407
0.234758175174181
0.240925832609252
0.246372404123896
0.251126684292357
0.255220677954677
0.258688725651182
0.261567303080385
0.263894252780833
0.265708194634893
0.267047844158278
0.267951450378809
0.268456289034995
0.268598268544472
0.268411625374617
0.267928701621714
0.267179825869423
0.266193241075529
0.264995113515209
0.263609477661311
0.262058244810566
0.260361295675124
0.258536600517224
0.256600370864069
0.254567201478279
0.25245017339673
0.250260990762001
0.248010073345974
0.245706647086532
0.243358864953205
0.24097389807404
0.238558023530548
0.236116705173075
0.233654667160652
0.23117595951641
0.228684017727893
0.226181715135514
0.223671412466644
0.221154999729525
0.218633940629645
0.216109306112561
0.213581822144576
0.211051895770975
0.208519683264907
0.205985104615938
0.203447969439514
0.20090793242569
0.198365041319825
0.195818613391171
0.193263309406707
0.190693882417537
0.188114234355245
0.185531897738988
0.182957508558553
0.18040125312519
0.177877939174953
0.175389291468792
0.173060225761727
0.17057727322717
0.168163963654576
0.167755361320885
0.170671369767847
0.177340510045008
0.187700592635123
0.201533084006766
0.218516078928037
0.238340852571976
0.260660901407946
0.285127980973505
0.311449858836323
0.339762021856771
0.370390694327034
0.40371003662496
0.440269666527508
0.480796500563223
0.525593930968838
0.573641306427537
0.623623113480352
0.673929914986215
0.721405561103438
0.763691910917693
0.802276651237137
0.849616986752433
0.907432885500223
0.968234541834067
0.995755412673474
0.906926810680695
0.876606211449011
0.858560900763869
0.888609812721691
1.14233752003155
1.1844791860278
0.765650568790803
0.309042481666795
0.155814220355509
0.113637722896687
0.094962968938767
0.0839615551051346
0.0775185098404697
0.0744069706430719
0.0736350749739572
0.0743201864412412
0.0757879718235527
0.077730641992705
0.0801220639996124
0.0830700508614784
0.0867942970181332
0.0915577719255414
0.0976091329992698
0.105182611034451
0.114499301129619
0.125635925636794
0.138310122036857
0.151631316183412
0.164157249463239
0.175582666611964
0.186240883755728
0.196061133863599
0.205038365983751
0.213226671258502
0.220646930493664
0.227319521921791
0.233265382614315
0.238510072504865
0.243081297662623
0.247010137306661
0.250330131903844
0.253077017987756
0.255287938810777
0.257000829296635
0.258253726433008
0.259084199354114
0.259528842341242
0.259622881488374
0.259399874752944
0.258891491869969
0.25812740243274
0.257135216533974
0.255940451659309
0.254566485742956
0.253034616144798
0.251364151229576
0.249572533294783
0.247675487526413
0.245687159047211
0.243620219742258
0.241486000119214
0.239294585276385
0.237054908489492
0.234774866688473
0.232461412888279
0.23012064433829
0.227757883420924
0.225377751775987
0.222984237067779
0.220580754220894
0.218170200412007
0.21575500755878
0.21333718901555
0.210918388860487
0.208499924054891
0.206082839732641
0.203667950938848
0.201255921564177
0.198847308734906
0.196442702380632
0.194042752098875
0.19164863904942
0.189261424438873
0.18687943115353
0.184501071727626
0.182132195017663
0.179783369338444
0.177469909760724
0.175209285310799
0.173025400293574
0.170935310199901
0.169078320023347
0.167149688652252
0.165186835177028
0.164835220384719
0.167357674588219
0.173256126450991
0.182550626335337
0.195055616309112
0.210462978560583
0.228474228856536
0.248768668082438
0.271026098563716
0.294993627928751
0.320814269659957
0.348804639001852
0.37930135533266
0.412781082209547
0.449860903372761
0.490739146940062
0.534431948794376
0.579765147284356
0.625329163348472
0.668302063963118
0.706281687432496
0.740042663693762
0.780488671531759
0.831189347213487
0.886869341327423
0.91510486012728
0.840552443329822
0.816205475092887
0.80421866075555
0.826855704495243
1.06171318311445
1.17946034266365
0.857883672846972
0.376218065705083
0.173960604875562
0.118932208956911
0.0973605265081278
0.0854133378538938
0.0784372176162368
0.0748897003188477
0.0736904082339629
0.0739608051747074
0.0750597521082804
0.0767006657235501
0.0788620230989236
0.0816457323041312
0.0852526730693255
0.089920697666928
0.0958702035532251
0.103297631390023
0.112372642560293
0.123121834153347
0.135247262069108
0.147938741854293
0.15994286484757
0.17098362315664
0.181315478232325
0.190856398891831
0.199591359056642
0.207560616137064
0.214779169027884
0.22126571566907
0.22703972930125
0.232125670972201
0.236550529100021
0.240344851266188
0.243541788350442
0.246176758306924
0.248286627957512
0.249909066220216
0.251081840228172
0.251842232973358
0.252226531987124
0.252269633973579
0.252004747806429
0.251463175243366
0.250674210187199
0.24966507723601
0.248460850971164
0.247084473967136
0.245556822177902
0.24389680186664
0.242121475925104
0.24024621156394
0.238284815476199
0.23624964534925
0.234151739289683
0.232000915840463
0.229805871266913
0.227574291971375
0.225312948579345
0.223027785101946
0.220724000621846
0.218406124481362
0.216078084563202
0.213743270357268
0.211404590528842
0.209064528284595
0.206725192395634
0.204388370960656
0.202055580982911
0.199728130436106
0.197407173134035