/*--------------------------------*- C++ -*----------------------------------*\
  =========                 |
  \\      /  F ield         | OpenFOAM: The Open Source CFD Toolbox
   \\    /   O peration     | Website:  https://openfoam.org
    \\  /    A nd           | Version:  7
     \\/     M anipulation  |
\*---------------------------------------------------------------------------*/
FoamFile
{
    version     2.0;
    format      ascii;
    class       volScalarField;
    location    "4000";
    object      k;
}
// * * * * * * * * * * * * * * * * * * * * * * * * * * * * * * * * * * * * * //

dimensions      [0 2 -2 0 0 0 0];

internalField   nonuniform List<scalar> 
15600
(
0.000336931799197164
0.00030874608916544
0.000188088797157933
7.95821805712807e-05
2.11136186437528e-05
1.13253271537754e-05
1.19826843865001e-05
9.55881310198927e-06
7.80186567575615e-06
7.06515522635104e-06
6.736417699027e-06
6.7395829348547e-06
7.10037465687113e-06
7.90421191784007e-06
9.31738883842311e-06
1.14855219728341e-05
1.45614257958099e-05
1.86510764897446e-05
2.39816787413214e-05
3.076296423435e-05
3.90811787201488e-05
4.88866451844045e-05
6.03975109581437e-05
7.36400629350883e-05
8.79810976497697e-05
0.000102809606183659
0.000117387537929515
0.00013119820013593
0.000164163922307323
0.000208672851209175
0.000246481642232741
0.000279425968019398
0.00030946346210143
0.000336864776697248
0.000361117410804207
0.000382653730495605
0.000401651487229748
0.000418190326298876
0.000432364652898946
0.000444279051525637
0.000454056379355406
0.000461832585613136
0.000467755861223092
0.000471980387905686
0.000474663299928691
0.000475959946141575
0.000476021224709442
0.000474990722806137
0.000473003157839063
0.000470183119458632
0.000466644518511187
0.000462490371279089
0.000457813059494779
0.000452694633158855
0.000447207646450647
0.000441416041297939
0.000435376377266557
0.00042913783772414
0.000422741929771001
0.000416224430126867
0.000409613060594176
0.00040293051070287
0.000396196287052351
0.000389424803860817
0.000382627024257329
0.000375810910984978
0.000368981487812983
0.000362141068667557
0.000355289421084555
0.00034842384931667
0.00034153930855832
0.000334628307324315
0.000327680998646246
0.000320684794006603
0.000313624549276563
0.000306481601321454
0.000299234388787983
0.000291856187535488
0.000284317114945808
0.00027657881545241
0.00026860205106135
0.000260311343291576
0.000251684150886891
0.000242789509252685
0.000233511674787942
0.000223646721985159
0.000213062630659095
0.000201471234439193
0.000188705498170848
0.000174334081836342
0.000157507012896518
0.000135563671361428
0.000121831181041078
0.00013069547964774
0.000141361281033058
0.000154418735332623
0.000166110128386854
0.000177169479228606
0.000188255644562881
0.000200676564011013
0.000212256052150255
0.000223433843046056
0.00023373345561355
0.00024290692495936
0.000246928404544311
0.000247548974394437
0.000246157087317799
0.000243689795647181
0.000241465842230121
0.000242973941711399
0.00025409314936379
0.00027377541926533
0.00030520433017118
0.000360175618213415
0.000448119049093455
0.000542434459534028
0.000497016028488363
0.00040335989895039
0.00032228112676287
0.000329705029792968
0.00572976207119876
0.00526841176193872
0.00340070722949384
0.0015025997103164
0.000405092228354537
0.000210640294117813
0.000221482639643208
0.000177767917984838
0.000144729513243205
0.0001306278410944
0.000124244721626892
0.000124003385660622
0.000130272665900771
0.000144581827803982
0.000169939179228826
0.000208957177411812
0.000264317586622822
0.000337785992949754
0.000433082787298654
0.000553370872340465
0.000699324431565949
0.000869108117687937
0.00106480643629334
0.00128473136543318
0.00151737442944339
0.0017527806728192
0.00198289138426301
0.00222595842774259
0.00273223274760767
0.0033518525712469
0.00385669620825773
0.00428513525716786
0.00466786958223148
0.00501168077297939
0.00531093342079401
0.00557315395942848
0.0058023188330767
0.00600053376835902
0.00616980884339703
0.00631202511639299
0.00642907231040313
0.00652282963598971
0.00659518578547553
0.00664800191637073
0.00668310083706695
0.00670223742046595
0.00670708496327173
0.00669921751377468
0.0066801019480813
0.00665109118977866
0.00661342252868011
0.00656821806826195
0.00651648881285702
0.00645913868304983
0.00639697334786233
0.00633070967344016
0.00626098842766548
0.00618837240024795
0.00611334121935755
0.00603631339957185
0.0059576224976961
0.00587754260535296
0.0057963105977987
0.00571410886075061
0.00563107874348308
0.0055473253415325
0.00546291813266351
0.00537789292928607
0.0052922531628573
0.00520597027230521
0.00511898425208898
0.00503120195521395
0.00494249700748778
0.00485270473230384
0.00476162236053387
0.00466899729050863
0.00457453063717175
0.00447785073100788
0.00437852911535183
0.0042760196811767
0.00416973409279795
0.00405859477594583
0.00394232162541078
0.00382181927424835
0.00369523481876908
0.00355970218516649
0.00341299803512184
0.00325095186538128
0.00307028348059282
0.00286463356049811
0.00261968510468849
0.00229489479474564
0.0020788294554626
0.00219872682904996
0.00236797091813768
0.00257496150821088
0.00276643340820562
0.00295226363740404
0.00314262183012703
0.00335446372086636
0.00355534224094352
0.00374976894780745
0.00393029113164539
0.00409107299257438
0.00417319873171343
0.00420270511167527
0.00420065651322643
0.00418142436861859
0.00416643044226084
0.00421302592969752
0.00441245254696112
0.0047424994248691
0.00525017786343659
0.00609209567265385
0.00734811840813491
0.00859755132709975
0.00808643360360644
0.00685837182439585
0.0056487128024691
0.00565690626355216
0.0183265140468069
0.0170699214557698
0.0132653358286849
0.00753317220027653
0.00231329085187463
0.00108283728421224
0.00111770920708309
0.000914173225412904
0.00074983512833776
0.000675954306370526
0.00064194128947343
0.000638106465708982
0.000666265214178979
0.000733642844261534
0.000853656842141936
0.00103547134776667
0.00128511784270498
0.00160197952078072
0.00198855597998792
0.00243944622675314
0.00293901572073753
0.00346956213558078
0.00402782363249136
0.00460407902868519
0.00517893984270394
0.00575280615336395
0.00635547551486503
0.00707279396604759
0.00820787305838218
0.00941803292855047
0.010388020710772
0.0112121666932309
0.0119445913112354
0.0125968147166878
0.0131700691813325
0.0136754405946449
0.0141193574499514
0.014506221247525
0.0148399546158266
0.0151240969371671
0.0153620766645695
0.015557225263064
0.0157128297705027
0.0158321006772533
0.0159181641889463
0.0159740286328551
0.0160025668743769
0.0160064937557364
0.0159883544938496
0.0159505150501747
0.0158951589253554
0.0158242871341913
0.0157397232121714
0.015643119015875
0.0155359671177787
0.0154196150353757
0.0152952826142123
0.0151640574220512
0.015026883627764
0.0148845895385191
0.0147378718275857
0.0145873200708095
0.0144334466540936
0.0142766735177587
0.01411734509232
0.0139557356215954
0.01379205138619
0.0136264335685804
0.0134589600531635
0.0132896458859094
0.0131184433049937
0.0129452389252542
0.0127698516647823
0.012592024830297
0.0124114221204701
0.0122276103464792
0.0120400551911297
0.0118480845737881
0.0116508907742017
0.0114474510797593
0.0112365818733595
0.0110164956839038
0.0107862384371495
0.0105464860133767
0.0102940090018035
0.010023570179126
0.00972989633179947
0.00940485631687442
0.00903933219977316
0.00861971156964547
0.0081135652595985
0.00742984609962853
0.00691248949495488
0.00707033753446502
0.0074602649932234
0.00797533139983419
0.00850731747932044
0.00905949346392124
0.00965171826531944
0.0103080090542509
0.0109650388487405
0.0116127419034148
0.012232144360052
0.0128015678180167
0.0132101758497325
0.0134957629349285
0.0137082990663827
0.0138847196562119
0.0140723917200144
0.0143983808757419
0.0150606532094784
0.0160036619408529
0.017274327427406
0.0190727536536339
0.0214290820247877
0.0234761625794076
0.0228273374067087
0.0209421975779836
0.0190779878014491
0.0186998302972611
0.0275732455359433
0.0261887267534356
0.0221348518114422
0.0153751956188863
0.0067349162864722
0.00311600158677669
0.00297460300322472
0.00251326164747148
0.00210771670783068
0.00190363836773961
0.00179899687074026
0.00176773518544917
0.00181363379074766
0.00194942183464326
0.00219711691021931
0.0025604265767129
0.00302977940334622
0.00358271689755373
0.0042069981528289
0.00488333802807564
0.00558753240891934
0.00630502227750355
0.00704328391054423
0.00779885266673364
0.00856136666635374
0.00935044484248661
0.0102288871361342
0.011320974739526
0.0128548342440533
0.0143925861592696
0.0156331263487072
0.0166977972244482
0.0176395838132179
0.0184731343642434
0.0192091836479289
0.0198596005941709
0.0204319020421689
0.0209317119766452
0.0213640028206112
0.0217332779001379
0.0220438731360393
0.0222999893702588
0.022505749010045
0.0226651687720727
0.0227821491029214
0.0228604402037649
0.0229036211303312
0.0229150759119498
0.0228979799796694
0.0228552898491053
0.0227897396600061
0.0227038415439329
0.0225998915513872
0.0224799774269633
0.0223459930072978
0.02219965478717
0.0220425216891544
0.021875981315108
0.0217012466916406
0.0215193859247103
0.0213313150654921
0.0211378191228189
0.0209395801812439
0.0207371724628575
0.0205310733021347
0.0203216713793731
0.0201092706123123
0.0198940937962826
0.0196762849954657
0.0194559104829101
0.0192329587487885
0.019007337890607
0.0187788726469016
0.0185472965336018
0.0183122453764317
0.018073240420837
0.0178296782974176
0.0175807966515266
0.0173256628035179
0.0170631028101957
0.0167917172119905
0.01650957384453
0.016214865389884
0.0159072636162806
0.0155836836005544
0.0152385610085501
0.0148654622457491
0.0144550359063165
0.0139957555248176
0.0134702924722467
0.0128452170525935
0.0120083182422014
0.0113334280850873
0.0114357672700007
0.0119145149963266
0.012601107534767
0.0133660711921322
0.0141927038564651
0.0150988174614188
0.0161026430680474
0.0171333675774408
0.0181625619460419
0.0191620106668174
0.0200965826923263
0.0208464082607599
0.0214398524282023
0.0219405476871786
0.0224025152364991
0.0228882090590962
0.0235487338573974
0.0246096496795921
0.0260061140330884
0.0277458175320923
0.0299938645956001
0.0328065184148012
0.035345936069485
0.0348487118221442
0.0321406183395885
0.0292027708273633
0.028137535295933
0.0342101487877813
0.0328107248114578
0.0287500031487348
0.0218368953256584
0.0123236581169583
0.00632928908555644
0.0053503025564265
0.00462058145409456
0.00397768437726031
0.00360536506608948
0.00338539810250507
0.00328112477145725
0.00329807729430603
0.00345175538043652
0.00376611982710378
0.00423196364476916
0.00482002845472879
0.00549205593490184
0.00622934058137786
0.00700927816612392
0.00781028704179842
0.00862677886717459
0.00947349903884808
0.0103510152211475
0.0112572861717258
0.0122252016808981
0.0133341583731338
0.0147160033898148
0.016519177959526
0.0182690064285675
0.0196951186753031
0.0209262233316386
0.0220132329939767
0.0229743821042175
0.0238256740556864
0.0245790974983545
0.0252428461986858
0.0258232818677345
0.0263260379510467
0.0267562549796261
0.0271188813384794
0.0274187169438634
0.0276604662109632
0.0278487130924243
0.0279879060021099
0.0280823228066694
0.0281360464783158
0.0281529398279558
0.0281366300193037
0.0280904974749605
0.0280176720833439
0.0279210336992545
0.0278032186660534
0.0276666290849398
0.0275134484738552
0.0273456603918495
0.0271650639811193
0.026973256995641
0.0267716463478352
0.0265614729019313
0.0263438117600008
0.0261195906689741
0.025889615719663
0.0256545725866139
0.0254150367016774
0.0251714820148699
0.0249242861755716
0.0246737348883944
0.0244200248853983
0.024163265392386
0.0239034783331174
0.02364059614529
0.0233744585009321
0.0231048049379482
0.0228312671419274
0.0225533531348526
0.0222704339277075
0.0219817122425843
0.0216862028762031
0.0213826706245376
0.0210696196299108
0.0207450773596125
0.0204068407805121
0.020053416476275
0.0196819661077679
0.0192870710252325
0.0188618950474317
0.0183966956138666
0.0178789295907315
0.0172898399156038
0.016595961774612
0.0156810577451048
0.0149105105596599
0.0149367675129111
0.0154368652436301
0.0162124695223325
0.0171219012124123
0.0181301120016931
0.0192482105271014
0.0204872436527126
0.0217758969825426
0.0230733729701456
0.0243444915633048
0.0255449442121727
0.0265569672243257
0.0273977272928742
0.0281340652053638
0.0288298231910179
0.0295572574756707
0.030475893888235
0.0318175958038861
0.0335323333629306
0.0356084270093206
0.0381813134321359
0.0413332740117464
0.0442928037209052
0.0442601063773072
0.0412809052949594
0.0372448601051384
0.0351570858848415
0.0397355702397138
0.0382005946259396
0.0341693713715216
0.0270729362278503
0.0176501543585782
0.0102130429268593
0.00777876560680704
0.00670528858002457
0.00587995836917638
0.00535121582527201
0.00500729521937751
0.00481139072088804
0.00477172453191707
0.00490737958993485
0.00524253731547963
0.00575652828365839
0.00640436966038945
0.00713893766723267
0.00793874543682911
0.00878103789373362
0.00964831982848394
0.0105417392402083
0.0114794675281799
0.0124646600245428
0.0135018511365286
0.0146322098364214
0.0159415812226537
0.0175552344917472
0.0195551718867333
0.02145933214361
0.0230280445799977
0.0243886668313777
0.0255900134699435
0.0266537039648412
0.0275978124551138
0.0284344148154866
0.0291722000648425
0.0298180569124953
0.0303781070099605
0.030857976819071
0.031263088625261
0.03159871245654
0.0318700134284922
0.0320820276695633
0.0322396425989971
0.0323475604190313
0.0324102704873792
0.032432022542227
0.0324168094130329
0.0323683550628923
0.0322901104490805
0.0321852540127277
0.0320566986583548
0.0319071022188726
0.031738884081459
0.0315542458479192
0.0313551741346586
0.0311434383234296
0.0309206028296586
0.0306880495681197
0.0304469833384051
0.0301984488649663
0.0299433544606324
0.0296824775982493
0.0294164750232486
0.0291458919651044
0.0288711683422984
0.028592643791982
0.0283105612086685
0.0280250687356393
0.0277362202771708
0.0274439737884769
0.0271481879971569
0.0268486156089396
0.0265448950424089
0.0262365356988698
0.025922902844986
0.0256031889944905
0.0252763894649174
0.0249412472656254
0.0245962258449886
0.0242393486508004
0.0238682557689071
0.0234807273583611
0.0230738824063846
0.0226425503713907
0.0221798423855889
0.0216760030660858
0.0211181215796987
0.0204870511503632
0.0197494985685155
0.0187919571872257
0.0179596288434023
0.0179109363324656
0.0184015187854139
0.0192229123475543
0.0202256987005718
0.021359946251911
0.0226285827412402
0.0240354012417798
0.0255098265792582
0.027002858544759
0.0284736884521806
0.0298712823327795
0.0310824058013552
0.0321158357107075
0.0330376247145053
0.0339169249026277
0.0348329002232367
0.0359484611057804
0.0374942142523647
0.0394385074711063
0.0417639176309078
0.0445844164167358
0.0479912244214333
0.0512443146403214
0.0516485891605064
0.0487956093146914
0.0442094164079695
0.0412235770617921
0.0446458830461586
0.0428910882701873
0.0389057775453303
0.0316527894401378
0.0222784068544169
0.0142572895160807
0.0101953811823477
0.00861328598283737
0.0076243676652996
0.00696488519751391
0.00651168200820281
0.00623088879986706
0.00613290135143836
0.00624037115057702
0.00657742270944978
0.0071150634830661
0.00779695566434069
0.00857090558173328
0.00941400505972777
0.0103042555390935
0.0112278407284698
0.0121906236000486
0.0132125236021982
0.0142987151488555
0.0154586880126807
0.0167381858012619
0.0182233306570702
0.0200269549105171
0.0221792756109758
0.0242054965161901
0.025892210060825
0.0273613556594179
0.0286600125677244
0.0298120266625271
0.0308361787657746
0.0317446726112314
0.032546581392006
0.033249208612004
0.033859070361828
0.0343821949085554
0.0348244009234932
0.0351913557103311
0.0354886163971933
0.0357216058479488
0.0358955884121409
0.0360156316040411
0.036086575367801
0.0361130037079441
0.0360992257020288
0.0360492626232633
0.0359668434761232
0.0358554053967365
0.0357181010305109
0.0355578100039962
0.0353771574950053
0.0351785293883567
0.0349640730580053
0.0347357068100185
0.0344951314776009
0.0342438516156125
0.0339831845821932
0.0337142769447721
0.0334381266143278
0.0331555915116406
0.0328674000165882
0.0325741606386344
0.0322763690839031
0.0319744139312662
0.031668580732872
0.0313590545318753
0.0310459207569644
0.0307291640116038
0.0304086649960301
0.0300841943187563
0.0297554041287478
0.0294218144211885
0.0290827971310945
0.0287375497897501
0.0283850685145204
0.0280240983932123
0.0276530962165799
0.0272701048648939
0.0268727215957435
0.0264583458828376
0.0260239641626477
0.025564638009393
0.0250736022759564
0.0245413023637268
0.0239548436658778
0.0232952253836152
0.0225296125369381
0.0215501866082642
0.0206788506062788
0.0205632492274017
0.0210297108470207
0.0218721869558645
0.0229371485693278
0.0241629353516875
0.0255440830291553
0.0270772827669944
0.0286925565238739
0.0303351294152456
0.0319594344011702
0.0335092380731285
0.0348762675567029
0.0360635693336784
0.0371350746623231
0.0381627253787348
0.0392307597009007
0.0405032949884655
0.0422062586499488
0.0443240327816426
0.0468396387404553
0.0498514484360377
0.0534472612115968
0.0568905223322842
0.0576192347638948
0.0550063050734853
0.0502653865332228
0.046665973072646
0.0491017334872761
0.0471055870195412
0.0431653773526213
0.0358847744122577
0.0263049519008091
0.0181582095642805
0.0126874176131257
0.0103955986234638
0.00921667448756365
0.00844363517957998
0.0078975165205477
0.00754333202375927
0.0073921564307187
0.00746929651565914
0.00779896888515778
0.00834698230199007
0.0090492398063654
0.00985056246130671
0.0107272593293318
0.0116583793616573
0.0126331655638923
0.0136608461467007
0.0147623294819733
0.0159443781847522
0.0172199135382479
0.0186364628250641
0.0202766654629733
0.0222391755753566
0.0245151227918625
0.0266439163161861
0.0284333171508775
0.0299980027970334
0.0313834639933605
0.0326148000846911
0.0337109185278583
0.0346841716611167
0.0355439394721369
0.0362978710229932
0.0369528189114896
0.0375151608673667
0.0379910639536112
0.0383865475497097
0.0387075182203045
0.038959744921556
0.0391488303454322
0.0392801705422386
0.0393589212065221
0.0393899676466515
0.0393779041858634
0.0393270203233547
0.0392412959846411
0.0391244017849265
0.0389797067864351
0.0388102911430137
0.0386189657168721
0.038408277156823
0.0381805188381413
0.0379377431470204
0.0376817737753685
0.0374142260854112
0.0371365189409185
0.0368498909354611
0.0365554214447297
0.0362540415723826
0.0359465451473798
0.0356335988860327
0.0353157502239259
0.0349934336216246
0.0346669752291519
0.0343365959368447
0.0340024127079043
0.0336644378903595
0.0333225764787177
0.0329766205597302
0.0326262411441666
0.0322709754874394
0.031910211051865
0.0315431611940854
0.0311688370763885
0.0307860025930307
0.0303931314880549
0.0299883046563828
0.0295691373324954
0.0291328630278137
0.0286763521381029
0.0281948773167775
0.0276818891991193
0.0271281607451043
0.0265210571760314
0.0258420208504985
0.0250589360200406
0.0240708939116706
0.0231768415972308
0.0230046212564741
0.023440764983433
0.0242893669037905
0.0253960900568077
0.0266902918764277
0.0281584737189489
0.0297904962979465
0.0315165508077011
0.033277526161458
0.035023722988633
0.0366947932196538
0.0381873621357818
0.0395007205505872
0.0406963732049318
0.0418476646174831
0.043042657408617
0.0444454101589771
0.0462754113317106
0.0485298740252424
0.0511946438087476
0.0543557240821695
0.0580890063306175
0.0616447737878849
0.0625918843606105
0.060218728818019
0.0555260366327858
0.051561071825299
0.0531714237092882
0.0509511407377018
0.0470514069803671
0.0398815916051209
0.0299753191439936
0.0218105877953412
0.0153354226731291
0.0121402625845463
0.0107069275093938
0.00982434922873848
0.00919693448340712
0.00877850750634827
0.00857877412790072
0.00862450150854272
0.00894020640149069
0.00948919146994543
0.0102024421170217
0.0110230506153935
0.0119268802274211
0.0128940621743616
0.0139162961349799
0.0150052338457938
0.0161823472904083
0.0174555422228721
0.0188398149479588
0.0203824198962686
0.0221603467099398
0.0242583308107895
0.0266384317332893
0.0288572187299921
0.0307391378009873
0.0323908169127418
0.033856122859241
0.0351607269544546
0.0363233995479066
0.0373566378707007
0.038270071077165
0.0390716466563355
0.0397685150780768
0.0403673689338006
0.0408746924274766
0.0412968276928978
0.0416400032320457
0.0419103078242082
0.0421136575418244
0.0422557531109729
0.0423420433053807
0.0423776932025978
0.0423675620469862
0.0423161884148494
0.0422277852352039
0.0421062398843628
0.0419551223232413
0.0417776999320149
0.0415769516458253
0.0413555719849094
0.0411159900148936
0.0408603822108774
0.040590685913035
0.0403086192281618
0.0400156949755237
0.0397132370380465
0.0394024006959026
0.0390841853074883
0.0387594459659995
0.0384289041900918
0.0380931564629917
0.0377526811588612
0.0374078437776887
0.0370589005403822
0.0367060002044764
0.0363491839235755
0.0359883829524401
0.0356234137588854
0.0352539702725859
0.0348796122251181
0.0344997494430802
0.0341136194315945
0.0337202592351407
0.0333184643159605
0.0329067430499511
0.032483230003756
0.0320455952172492
0.0315910360050644
0.0311163618666633
0.0306170477190856
0.030086812272961
0.0295168338922937
0.0288948970455471
0.0282030603476295
0.0274101403165673
0.0264224833517764
0.0255177041944614
0.0252992715064232
0.0257035263004922
0.0265490157314379
0.0276834439991412
0.0290295841187179
0.0305665405188587
0.0322777051218959
0.0340930168742852
0.0359499150884012
0.0377950502142529
0.0395648025311133
0.0411605125650069
0.042579116063965
0.0438797816408475
0.0451364965844804
0.0464402347375252
0.0479540788834303
0.0498901077109343
0.0522554899404156
0.0550394272527336
0.0583169226768453
0.0621459610114696
0.0657549757399885
0.066835581927792
0.0646677606655919
0.060116133769758
0.055961675287669
0.0568981484957117
0.0544879925333716
0.0506277219736377
0.0436688376105668
0.0334489215708652
0.0252179007261471
0.0181608457063163
0.0139299003103291
0.0121453726899896
0.0111429634748325
0.010440397535418
0.00996365253697467
0.00971819741766633
0.00973099232600884
0.0100269535952841
0.0105690794128546
0.0112857359691327
0.0121191504912039
0.0130449263437344
0.0140441838562599
0.0151105333876395
0.0162573482227949
0.0175063605290795
0.018866164424765
0.0203526826043111
0.0220114328219383
0.0239126408776619
0.0261282482258432
0.0285988436500968
0.0308990633246489
0.0328664149004655
0.0345992028509009
0.0361395419646986
0.0375132020538399
0.0387386840453975
0.0398286088672509
0.0407928095300592
0.0416394974376973
0.0423760938908815
0.0430095827564307
0.0435467446682193
0.0439942252902467
0.0443585571813183
0.0446461318618955
0.0448631625275225
0.0450156389644204
0.0451092881083888
0.0451495405466249
0.0451415069103169
0.0450899620130406
0.0449993397153297
0.0448737328285305
0.0447169019857765
0.0445322917301694
0.0443230353125609
0.0440919681043148
0.0438416473912465
0.0435743667796846
0.0432921707903018
0.0429968745888955
0.0426900796149482
0.0423731902607033
0.0420474337773003
0.0417138743223147
0.0413734253320112
0.041026860775545
0.0406748243686846
0.0403178371179283
0.0399563031351564
0.039590513791151
0.0392206500530199
0.0388467829174313
0.0384688716407417
0.0380867595523807
0.0377001668844941
0.0373086801547797
0.0369117371282715
0.0365086062361069
0.0360983591196103
0.0356798331128244
0.035251585191077
0.0348118171244191
0.0343582787574412
0.0338882102352413
0.0333984256228613
0.0328846021580305
0.032340760529122
0.0317585333135711
0.0311262296082907
0.0304266274310667
0.0296296418533464
0.0286487647867128
0.0277422635779947
0.0274872864168066
0.0278606823514275
0.0286974351414095
0.0298495782663257
0.0312353837756375
0.0328273363630665
0.0346027886194844
0.03649108935512
0.0384267999427989
0.0403533131081712
0.0422044290787416
0.0438860057774635
0.0453936106310189
0.0467843092295071
0.0481323208354858
0.0495308146416249
0.0511411432896115
0.0531674296845619
0.0556244310823699
0.0585043164342954
0.0618712889506453
0.0657611783890301
0.0693769748313245
0.070525998192676
0.06852285689763
0.0641492583146227
0.0599224545999327
0.0603168091403913
0.0577555899792227
0.0539386177901817
0.0472458696947513
0.0368258263458099
0.02840309284928
0.021121143366209
0.0158354997686494
0.0135775857796774
0.0124291209148452
0.0116519864252177
0.0111199561522792
0.0108299236381984
0.0108076799946968
0.0110784506393833
0.0116066571799977
0.0123199653540918
0.013160425923222
0.0141034962757237
0.0151311316456911
0.0162383688873844
0.017439747672424
0.0187570022528355
0.0201989765932009
0.0217815841205029
0.0235476079412047
0.0255600734500671
0.0278795300069952
0.0304307653520303
0.0328063483587884
0.0348540153214055
0.0366637317379717
0.0382756941552842
0.0397154291373039
0.0410010900239289
0.042145388797311
0.0431583247705519
0.0440483464286604
0.0448231263495873
0.0454899234465652
0.0460558012150636
0.0465276965316259
0.0469124347264266
0.0472166992809228
0.0474469902169791
0.0476095763987945
0.0477104532915503
0.0477553076784392
0.0477494926508294
0.0476980106897947
0.047605508470051
0.0474762765470753
0.0473142601558392
0.0471230701558865
0.0469059871823817
0.0466659821658966
0.0464057353921501
0.0461276526741176
0.0458338810879341
0.0455263287726436
0.045206681945005
0.0448764220498794
0.0445368454736071
0.0441890787076933
0.0438340914630117
0.0434727085183035
0.0431056195922177
0.0427333875069541
0.0423564545941041
0.0419751474229005
0.0415896796936191
0.0412001532720844
0.0408065570118181
0.0404087633067078
0.0400065216297711
0.0395994489947095
0.0391870158414993
0.0387685272784181
0.0383430968474525
0.0379096124208721
0.0374666910643297
0.0370126136221406
0.0365452283294551
0.036061868863302
0.0355594127109769
0.0350337490958606
0.0344792243745824
0.0338879559856413
0.0332488466319143
0.032545454685231
0.0317489184254205
0.0307795335457757
0.0298781884883861
0.0295953155058084
0.0299403273327314
0.0307651168968538
0.0319277495018129
0.0333437835785281
0.0349799221934278
0.0368079561495348
0.0387564028076719
0.0407573343282518
0.0427512208563199
0.0446698686767968
0.0464234687555114
0.0480069183301188
0.049475452103063
0.0509033042916245
0.0523852396062049
0.0540802241226542
0.0561841319829495
0.0587173860085224
0.0616742638561086
0.0651076963277729
0.0690284857847428
0.0726138333490061
0.0737818471948073
0.0719058394803182
0.0677195611059151
0.0634964102542392
0.063457971821465
0.0607829918284375
0.0570166191544799
0.0506111145701474
0.04015607425443
0.0314122127232961
0.0241318244482633
0.0179147044280238
0.0150471300626718
0.0137081436643367
0.012850827044948
0.0122639027865956
0.0119289768968837
0.0118690640182046
0.0121093746497255
0.0126170315388285
0.0133206350792759
0.0141626841556876
0.0151185813981703
0.0161709408408324
0.0173157994588577
0.0185684025535884
0.0199502468996761
0.0214700242352984
0.0231429013993751
0.025008284580789
0.02712198104779
0.0295345389187371
0.032159143225757
0.0346056483778093
0.0367298364093292
0.0386134455078936
0.0402945850734222
0.041798275269485
0.0431422640529171
0.0443393142968114
0.0453995588538541
0.0463316613029205
0.0471435310303126
0.0478426909541276
0.0484364789848126
0.0489321158907996
0.0493367132691627
0.0496572403462071
0.0499004779770775
0.0500729681740114
0.0501809690842791
0.0502304179022108
0.0502269045306957
0.0501756535733063
0.0500815192028767
0.0499489850137102
0.0497821757007526
0.0495848594982204
0.0493604613343005
0.0491120836817638
0.0488425261580768
0.0485543032801865
0.0482496613488954
0.0479305985151533
0.0475988829792835
0.0472560707160353
0.0469035251855662
0.0465424334443356
0.0461738200112968
0.0457985593369784
0.0454173863282428
0.0450309051368646
0.0446395961694849
0.0442438214083431
0.04384382789194
0.0434397493790099
0.0430316058195975
0.0426193006862177
0.042202615325521
0.0417812005423301
0.0413545636072167
0.0409220513411435
0.0404828255056088
0.040035832024629
0.0395797578057749
0.0391129732927946
0.0386334398747748
0.0381386188984549
0.0376254999168262
0.0370901995476655
0.0365274077901101
0.0359297457739483
0.0352867533665478
0.0345828033799669
0.0337903456465875
0.0328360293934388
0.0319451721290711
0.0316419973736466
0.0319618563828222
0.0327730895534152
0.0339409503883227
0.0353797883823417
0.0370513737838868
0.038922443832888
0.0409205327259277
0.0429755055663735
0.0450252079543
0.0469999587037796
0.0488141164977425
0.050462406791554
0.0519985022620745
0.053496539068435
0.0550523454984416
0.0568219212908092
0.0589927597347969
0.0615893621995232
0.0646070244862095
0.0680866062079727
0.0720121781564129
0.0755368466995586
0.0766863344010334
0.074905581100075
0.0709025018584799
0.0667314638839433
0.0663487954456664
0.0635933499271082
0.0598864744860524
0.0537689917714738
0.0434516264239379
0.0342982971504422
0.0271003116684384
0.0202072250397792
0.0165982579643679
0.0150037648006582
0.0140530864001222
0.0134089409338665
0.0130274548403816
0.0129267468285203
0.0131314206301041
0.0136121435706059
0.0142998478449739
0.0151380963596055
0.0161023385199431
0.0171756737729405
0.0183547650608465
0.019655166908532
0.0210979095541407
0.0226911781293851
0.0244488302236622
0.0264065166981347
0.0286130532457049
0.0311102385617246
0.0338027501242901
0.0363168460326847
0.0385146781344333
0.0404699469184959
0.0422185038887092
0.0437846513898818
0.0451856794913064
0.0464343566332738
0.0475409192560994
0.0485142271524416
0.0493624156301728
0.0500932643866119
0.0507143811438832
0.0512332670245872
0.051657317012419
0.0519937833131993
0.0522497248607932
0.0524319539170287
0.0525469882783639
0.0526010123731626
0.0525998496794339
0.0525489435895593
0.052453352497101
0.0523177511021743
0.0521464361061687
0.0519433297617425
0.0517119987663462
0.0514556743821809
0.0511772730043965
0.0508794153726971
0.0505644446155843
0.0502344467463647
0.0498912699129545
0.049536542774582
0.049171694365814
0.0487979710429126
0.0484164511038835
0.0480280579003398
0.0476335710163959
0.0472336356903153
0.0468287704426048
0.046419373007884
0.0460057244319125
0.0455879913935139
0.0451662263742696
0.0447403658078801
0.0443102253310328
0.0438754925380501
0.0434357152680897
0.0429902865710208
0.0425384220301184
0.0420791322839915
0.0416111825567233
0.041133042297228
0.0406427983110978
0.0401380636573232