/*--------------------------------*- C++ -*----------------------------------*\
  =========                 |
  \\      /  F ield         | OpenFOAM: The Open Source CFD Toolbox
   \\    /   O peration     | Website:  https://openfoam.org
    \\  /    A nd           | Version:  7
     \\/     M anipulation  |
\*---------------------------------------------------------------------------*/
FoamFile
{
    version     2.0;
    format      ascii;
    class       volScalarField;
    location    "4000";
    object      omega;
}
// * * * * * * * * * * * * * * * * * * * * * * * * * * * * * * * * * * * * * //

dimensions      [0 0 -1 0 0 0 0];

internalField   nonuniform List<scalar> 
15600
(
1974.60613735576
1972.648325243
1984.42791022013
2055.78059759582
2222.67690004102
2356.686868098
2378.42128442444
2300.00018532342
2153.97031116953
1966.45861756929
1762.78479607635
1583.64547894744
1435.67966376577
1312.2349065017
1208.29531934702
1120.03744959636
1041.43040276847
963.351277377799
885.918292649371
810.58135114486
738.629427726828
671.777660481123
614.580438156229
568.667823075621
533.493089366932
508.868650769501
494.93483283514
492.061840314983
493.651539705996
493.651534338166
493.651534338173
493.651534338186
493.651534338214
493.651534338152
493.651534338164
493.651534338193
493.651534338173
493.651534338179
493.651534338187
493.651534338166
493.651534338199
493.651534338138
493.651534338171
493.651534338152
493.651534338165
493.651534338172
493.651534338187
493.651534338193
493.6515343382
493.651534338166
493.651534338172
493.651534338165
493.6515343382
493.651534338165
493.651534338146
493.651534338186
493.65153433818
493.651534338194
493.651534338178
493.651534338193
493.6515343382
493.651534338185
493.651534338193
493.651534338201
493.65153433813
493.651534338152
493.651534338177
493.651534338139
493.651534338172
493.65153433818
493.651534338191
493.651534338182
493.65153433818
493.651534338178
493.651534338194
493.651534338178
493.651534338152
493.651534338152
493.651534338159
493.651534338193
493.651534338166
493.651534338166
493.651534338171
493.651534338213
493.651534338157
493.651534338194
493.65153433817
493.651534338157
493.651534338187
493.651534338165
493.651534338165
493.651539706002
492.061840314982
494.934832835202
508.868650769232
533.493089366357
568.667823075228
614.580438156834
671.777660481449
738.629427726959
810.581351143299
885.918292648864
963.351277377646
1041.43040276902
1120.03744959597
1208.2953193011
1312.23490651725
1435.67966381516
1583.6454790092
1762.78479592733
1966.45861764716
2153.97031128258
2300.00018510395
2378.42128451691
2356.68686814436
2222.67690004416
2055.78059756207
1984.42791022399
1972.64832524326
1974.60613735531
418.215680156622
418.03603754813
451.200907525708
462.063543736606
463.211171681581
466.280388386001
468.705290227038
454.197738757413
426.47156370827
389.882068719864
350.070574281532
314.925454789048
285.884555035041
261.88271718137
241.904862936459
225.035069505974
209.818699861086
194.602958900191
179.337260026476
164.207003774837
149.553905485647
136.088018532131
124.594924201985
115.217676026207
108.050298117351
103.227554488032
101.372804159359
104.515604318667
105.410949778234
103.271795419488
101.82742037127
100.932971902189
100.266786778633
99.8279744219815
99.5360136538802
99.2969587185858
99.0752458747824
98.8697956186347
98.6796924940379
98.5045114239697
98.3439186007064
98.1976418059752
98.0653446179788
97.9466646877425
97.8411784887212
97.7484321201966
97.6679348488588
97.5991774190529
97.5416336076269
97.4947690964221
97.4580447880937
97.4309218906947
97.4128625252016
97.4033360026343
97.4018177542836
97.4077912021957
97.4207392135461
97.4401457143542
97.4655014276207
97.4962901236676
97.5320669150071
97.5723762566654
97.616735919748
97.6647215025825
97.7159105576568
97.7698835907527
97.826231464378
97.8845537795753
97.9444583190676
98.0055613209485
98.067484673958
98.1298589194227
98.192316570924
98.2545019360256
98.3160544120197
98.3766369000866
98.4358912288638
98.4935173518978
98.5491502120896
98.6025729330128
98.6532753107652
98.706685095454
98.790428881596
98.8976117746443
99.0117257466509
99.1412510231538
99.2846556713524
99.4639957826547
99.6729250542001
99.9613153605763
100.39356212106
101.16950902298
100.279308239211
98.1651940516449
100.482615147409
104.997732595403
111.724856921507
120.552925098288
131.568604060889
144.442753216477
158.543473166653
173.445438865112
188.971357147749
204.889107895271
221.450937860025
239.907495849051
261.426535618812
286.845596391624
317.099405327888
353.186616486347
393.822694776321
432.717831478224
464.484221295607
483.202562839524
484.266076384078
471.137324635554
475.799375622017
481.26882123891
470.750967358618
433.925209442465
176.863783277583
170.535191711084
175.593845693704
183.144004957543
171.869045296212
167.777927509685
163.604454413349
159.310207192234
150.590310977013
138.097911705221
124.159732687861
111.773650780835
101.56082774387
93.1139569552404
86.0487026159324
80.0228308529159
74.5309769945245
69.0022461089715
63.4636222051153
58.0644811639115
52.9866860568396
48.4427961819263
44.6979315638085
41.8340592201396
39.840956249098
38.7311501688685
38.5230963624784
38.8509362257487
38.8682344760522
38.71311335108
38.7167257054452
38.7928728064987
38.8413420921247
38.7736724411674
38.731326326621
38.70406140954
38.6817106069556
38.6623300698812
38.6446113948393
38.6278940946653
38.6118010182003
38.5961620727526
38.5808948564396
38.5659914647952
38.551474359084
38.5373933153017
38.5238077560488
38.5107850698883
38.4983929918271
38.4866975740801
38.4757601343045
38.4656360102287
38.4563723169778
38.4480095120594
38.4405796111036
38.4341049176306
38.4285915997705
38.424031696352
38.4204078278582
38.4176764244518
38.41581216006
38.4147840730987
38.4145321591176
38.4150059150258
38.4161450579009
38.4178794327574
38.4201328266573
38.4228230927642
38.4258625716011
38.4291590915718
38.4326154040565
38.4361317579632
38.4396035603173
38.4429278710923
38.445996256772
38.4487118012702
38.4509680836974
38.452694581533
38.4537953171635
38.4542695398861
38.4539714699389
38.4544687323212
38.4412814446978
38.4051135587796
38.3610194495632
38.3107246056179
38.252935024433
38.1870850607398
38.1114448842955
38.0108327921596
37.9424104893261
37.8833385783256
37.669997173801
37.5631670031486
38.0396242577038
39.3917716164894
41.6149930487717
44.5866733699374
48.2932781226419
52.6140534737443
57.4295073310242
62.5735960617402
67.9965713623657
73.6442388623409
79.7264909567725
86.4954169068219
94.2848251308715
103.391486484235
114.096512849583
126.505830264681
139.921387987641
152.84887615142
163.397589473367
168.926773512168
168.231204079783
165.301570801102
169.507875233077
179.75261183255
189.843784588061
187.367180370085
100.450775268722
95.1043216746713
98.3801174078559
112.0833229551
106.309716661975
85.3322328557809
76.0836584280047
73.9560308152131
70.5594961401327
65.0620906263725
58.7732721008132
53.2039491973754
48.6518656656141
44.9469219543975
41.8461142151973
39.1270187855647
36.5537852352992
33.9562764586179
31.3875306504153
28.9468737487807
26.7360637640064
24.842566617802
23.3449285251943
22.2697017097388
21.6255245125915
21.4185747902076
21.590175848147
21.8737257738398
21.9273698476599
21.9296251798832
22.0099045208215
22.104061810081
22.1626712995913
22.179568738377
22.2073364689503
22.2376486640987
22.2665736830041
22.2931556682088
22.3168331304431
22.3374333556142
22.354938372881
22.369444861683
22.3810925897187
22.3900562477864
22.3965203460389
22.4006770633475
22.4027166782378
22.4028266153375
22.4011875236221
22.3979722850242
22.3933446942426
22.3874589451587
22.3804587556196
22.3724785651503
22.363642638632
22.3540634837218
22.3438389508252
22.3330513146684
22.3217720657874
22.3100560785906
22.2979623167248
22.2855438441251
22.2728348025961
22.2598682858174
22.2466689452627
22.2332529226833
22.2196299127693
22.2058036918254
22.1917726878302
22.1775309040494
22.1630681019682
22.148371625463
22.1334258998744
22.1182164475286
22.1027273894468
22.0869511382898
22.0708797993617
22.0545297687475
22.0379147003806
22.0211093502704
22.0041311581201
21.9877071161348
21.967949481902
21.9337629211403
21.893579980001
21.8504040317981
21.8043616144186
21.7557111859392
21.7042912150004
21.6462261451506
21.6003804420222
21.5825714869116
21.4731997878201
21.2877492532809
21.3670227651046
21.9070161987525
22.9246580265621
24.3348446264816
26.1009544873933
28.1556428391116
30.4626676773571
32.9435908458681
35.5698715444123
38.3216688310526
41.3225117833995
44.6480010986361
48.4097776864588
52.7261527909448
57.7000407649313
63.288613764457
69.0623724072076
74.5124483457359
78.8774388917411
80.9537639016769
80.3432782080919
79.3341811676966
83.0435003275922
90.4248877109395
101.18810169544
105.006803569745
66.1396828234566
62.8024915735573
65.2827634283857
80.7807229326422
84.8066657339707
59.0986275172231
44.0439799785104
41.3586685040585
39.5283724382656
36.6134146964361
33.3016169743518
30.419786413631
28.1187208826193
26.3059022073999
24.7961213395285
23.4303844907624
22.0896795773407
20.7295913135905
19.3883927344527
18.1254656079801
17.0027813351827
16.0679686926575
15.3522507983698
14.8749444048166
14.6558839628277
14.6995197113874
14.9488870380765
15.2225955116864
15.2613733810612
15.2354741354899
15.2810206148611
15.3418108416615
15.3841935363334
15.4152590655522
15.451541569824
15.4876295012566
15.5214255126612
15.5523224614255
15.579992234695
15.6043735867524
15.6255066553208
15.6435083352727
15.658523464176
15.6707188161579
15.680266584609
15.6873425239542
15.6921198455561
15.6947684334219
15.6954523972535
15.6943293864211
15.6915498423115
15.6872566653141
15.6815847395388
15.6746617027818
15.6666071557796
15.6575311684883
15.6475321251724
15.6366949451504
15.625097482544
15.6128074404521
15.5998931369155
15.5864182921344
15.5724343277807
15.5579899212613
15.5431277412866
15.5278844685702
15.5122920924263
15.4963785204744
15.4801681845076
15.4636828956194
15.4469423441907
15.4299655909892
15.412771393781
15.395381162618
15.3778185642273
15.3601160616222
15.3423118884944
15.3244655975347
15.3066463225619
15.2889715344083
15.2715459156202
15.2548424826528
15.2376633342503
15.2144623408926
15.1878681181789
15.160775370464
15.1342580509047
15.1096388365575
15.0881815153554
15.0712465181597
15.0701427171372
15.1155681801171
15.0697901468088
14.8517746579129
14.7939399872985
15.0358797451058
15.5950968406367
16.4136093661181
17.4530695461998
18.6659761935139
20.0350279991416
21.5167292701899
23.0908730436027
24.747589486463
26.5647849862298
28.575600792826
30.8220226386628
33.356054898223
36.2204491885831
39.3547046322725
42.4768124861769
45.3506909600246
47.6182891572443
48.6682479026341
48.3248052638605
47.9092991526091
50.617984191473
55.7393033472735
63.4775125495389
67.5929464088855
47.7320056371012
45.7995114376437
47.5043371701329
61.4930989785074
71.8422876980594
50.5620720886512
31.2712383419951
27.1485167587317
25.6543518561376
23.7910519977282
21.7738726670299
20.0743638166111
18.7666716563282
17.7815010760652
16.9683571680398
16.2065861214953
15.4280318413646
14.6253167725762
13.8266391182245
13.0741528250033
12.4131955906905
11.8760878010505
11.4801716339499
11.2425477838982
11.1825412764923
11.2997657988816
11.5419591018572
11.7672178926798
11.7795921764257
11.73635320798
11.7582431183204
11.7963292379753
11.827978900606
11.8576926085233
11.8904113525219
11.9224712726946
11.9524609325921
11.9799031058512
12.0045438476617
12.0263350332526
12.0453077232423
12.0615536168582
12.0751880289684
12.0863442922333
12.095161337232
12.1017816035923
12.106346441701
12.108995180482
12.1098632588787
12.1090815582347
12.1067758216432
12.103066333527
12.0980675563549
12.0918885660645
12.084632256261
12.0763941347026
12.0672594354191
12.0573031457386
12.0465960083355
12.0352020885415
12.0231850788281
12.0106052578225
11.9975145989913
11.9839623819504
11.9699936663412
11.9556493975509
11.9409673222494
11.9259825982398
11.9107284062548
11.8952367559056
11.8795391341403
11.8636678218803
11.8476566248161
11.8315432986628
11.8153701870032
11.799189199799
11.7830615193253
11.7670686865459
11.7513083415354
11.7359205388771
11.7210559782827
11.7070891277434
11.6937092431436
11.67823792157
11.6614330810299
11.6455246944384
11.6319237203394
11.6223990369715
11.6189392107937
11.6247762487491
11.6489830267136
11.7252377931394
11.7247428494226
11.5300726049576
11.4227314876601
11.5273692250272
11.8645009255554
12.3944451829577
13.0824679726388
13.8913416414716
14.8095952993654
15.8102432545176
16.8781311934595
18.007638237908
19.2524465752116
20.6321295893804
22.1633001182252
23.8702017043735
25.7715352120531
27.8112396736805
29.7891866617554
31.5686068212858
32.955812499733
33.6009345692448
33.409441593572
33.2198311085278
35.1821851307278
38.9567256747648
44.5017626917316
47.926982686974
36.6542376282345
35.5547593407445
36.7423373446675
48.1624476347183
61.3848903676131
47.1849151504843
26.0670385902077
20.2676854278514
18.6846279048286
17.2893522459222
15.88902893599
14.7539522271516
13.9162746532858
13.3145888192904
12.8223960086781
12.3439941723232
11.8359818221068
11.3032382664895
10.768846825446
10.2662419872708
9.8310452438689
9.4869006151203
9.24523596868707
9.12053524077632
9.12800050873134
9.26251062655715
9.47564046599934
9.65093618451839
9.64452221442374
9.59639746365022
9.60547250943473
9.63034019782457
9.65474723366448
9.68040754762598
9.70806541378068
9.73508636463054
9.76038508610132
9.78355010121874
9.80435996797632
9.82276259248476
9.83877367064154
9.85246085792743
9.86391388299038
9.873238910511
9.88054841758211
9.88595882434278
9.88958666813029
9.89154750056159
9.89195429478956
9.89091674958101
9.88854077073244
9.8849281464668
9.88017622869484
9.87437814431826
9.86762211067208
9.85998995633148
9.85155437556618
9.84238072447394
9.83253151614154
9.82206457020887
9.81103699396173
9.79950330118864
9.78751217088089
9.77510994942281
9.76233995920922
9.74924267583556
9.73585643629695
9.72221802838647
9.70836329742714
9.6943279139771
9.68014809319161
9.66586180142665
9.6515096921384
9.63713721909357
9.62279581088901
9.60854695946993
9.59446336125955
9.58063750614813
9.56718138099051
9.55424585311071
9.54200516146843
9.53078616969651
9.52062446014001
9.51025492146652
9.49989290110524
9.49123557993164
9.48575025538809
9.4853428267521
9.49231819309695
9.5105245939858
9.54790715332552
9.6367302323945
9.66605677264478
9.50888682743507
9.38853836313061
9.42204377789351
9.63461172804366
9.99972712959853
10.4874962684004
11.0673501331684
11.7300873719647
12.4575540035778
13.2380385948544
14.0681858506699
14.9873623952146
16.0095532490756
17.1409916802122
18.3928885601819
19.7727839821052
21.2319182867568
22.6197338737518
23.8445090250986
24.7897643161485
25.2364423686114
25.1276735462694
25.0394370437208
26.4965563016978
29.3955398433607
33.5759453534964
36.3610338568826
29.39371456613
28.7827682825913
29.6771290652414
38.5484782435376
53.2790004169055
45.2144795928417
24.2639784327655
16.6799232456164
14.7890866543879
13.6033310266991
12.5247018230052
11.6843064228198
11.0882500394945
10.6783491247116
10.3455089180971
10.0112059774047
9.6455882335831
9.25782856556626
8.86788426424883
8.50353279970978
8.19351741709258
7.95573200373205
7.79832460439953
7.73300310512257
7.77049810689588
7.90215200383026
8.08334145035359
8.2176151472137
8.20039628037366
8.15344391495926
8.15587006791368
8.17304888220414
8.19254230386374
8.2143519057403
8.23760374622056
8.26030261767667
8.28155410551872
8.30099211651784
8.31841733706256
8.33377491989888
8.34707061402908
8.35835636243224
8.36770524087806
8.37520571648452
8.3809529831907
8.38504637237171
8.38758598545562
8.38867146128524
8.38840054490406
8.38686837212526
8.38416698961005
8.38038503811698
8.37560746656714
8.36991562242018
8.36338663648864
8.35609138293405
8.3480930403402
8.33944936296481
8.33021588614559
8.32044461785387
8.31018668400921
8.29949113480455
8.28840275352234
8.27696434324124
8.26521647177534
8.25319770602227
8.24094520167479
8.22849526932768
8.21588397217393
8.20314786281747
8.19032473472862
8.17745475057338
8.16458148134609
8.15175381296996
8.13902740420685
8.1264682119578
8.11415441326106
8.10218345826097
8.09067397715716
8.07978095800666
8.06968970713249
8.06069933576888
8.05299430631041
8.046034943015
8.03993719469885
8.03602651211988
8.03572162648596
8.04092636212306
8.0540496444169
8.07906013207093
8.1231275711154
8.21558216412699
8.26366893282301
8.14313800852728
8.02602559366778
8.02086102696361
8.15714081546884
8.41828074677894
8.7792849223925
9.21453417889752
9.71596504525261
10.270588967144
10.8691593411387
11.5096898369337
12.2223021841945
13.018091013427
13.8987459190632
14.8688602002352
15.9302388827175
17.0408014976201
18.0825806120067
18.9880259719746
19.6812914855413
20.0159286397419
19.9551845849016
19.9179886678569
21.0287646918962
23.3164997540831
26.6014827756572
28.9079651281396
24.3149292681676
23.9989076929397
24.7376175036868
31.4589139026101
46.4263265107679
43.5883682096096
24.2638917869108
14.8096344232956
12.4376901574148
11.3176514464351
10.4156931006012
9.74046070908415
9.27780113820706
8.9707796731371
8.72318597113166
8.46860378510124
8.18508811455965
7.88306024397358
7.58020800924671
7.3001324428827
7.06640978222781
6.89290974030936
6.78563697083781
6.75369066247756
6.80391968577036
6.9253832608646
7.07745821948724
7.18028172259731
7.15790172488012
7.11484093253788
7.11410620464913
7.12682753042932
7.14303190162466
7.16177681783564
7.18158773510177
7.20089098128561
7.21892384253962
7.23535864526291
7.2500165232167
7.26284452014434
7.27384493377661
7.28306181330206
7.29055940923987
7.29641636293522
7.30071805672127
7.3035538761682
7.30501414903241
7.30518882898686
7.30416617867942
7.30203205304275
7.29886945799709
7.29475825585171
7.28977491564184
7.28399258396627
7.27748019523374
7.27030052538405
7.2625099666665
7.25416058671344
7.24530246324124
7.23598281845137
7.22624785386524
7.2161419961757
7.20570641241782
7.19498056437458
7.18400219558765
7.1728076106238
7.16143219575005
7.14991096437745
7.1382791447568
7.12657289131665
7.11483004766334
7.10309121478827
7.09140083791625
7.07980896425485
7.06837284579478
7.05716007904037
7.04625095136592
7.03574447914642
7.02576156250139
7.01645744447414
7.00802134194579
7.00073337590686
6.99484434852723
6.99020104522983
6.98696313438639
6.98620127127646
6.98925167232412
6.99795335970681
7.01470720217216
7.04339242741834
7.09056124179972
7.18221884013777
7.24158521873381
7.15270419189262
7.04602823322022
7.01996165325383
7.10698374592893
7.29815762401005
7.57307259258769
7.91009880696342
8.30193573982488
8.73883273712946
9.21336847060437
9.72444679126052
10.2958214368768
10.9367789924641
11.6469810801313
12.4275087367862
13.2770430484026
14.1590948505993
14.9785568678171
15.6826283623688
16.2187501019922
16.4839423794262
16.4529518364119
16.4431529891219
17.3107648895357
19.1509310632394
21.8058294514292
23.7550650598935
20.580475280614
20.4488273068052
21.1055025633464
26.1435350474454
40.4255775942335
41.760678648024
25.1562254620598
13.9841383031712
10.964526961856
9.80830492646514
9.00070568387346
8.42114853127757
8.03517234083776
7.7857589147699
7.58630955793006
7.37898622547314
7.14652152599861
6.89924532409138
6.65300875653723
6.42813278592223
6.24420692787178
6.11218286625296
6.03650993416063
6.02398229793165
6.07833761919878
6.18738132955462
6.31458329167414
6.39390772427813
6.37002900460052
6.33201512374243
6.33017919929232
6.34042702309658
6.35450245844392
6.37098115917531
6.3882204478325
6.40494105578121
6.42048242041557
6.43455282227198
6.4469945861112
6.45776125379256
6.46685718639929
6.47432473609478
6.48022538064934
6.48463389842526
6.48763147225256
6.48930286467209
6.4897335826036
6.48900851683867
6.48721071947518
6.48442070328261
6.48071604617509
6.47617113085833
6.47085695046546
6.46484113043132
6.45818663205896
6.45095061381844
6.44318474416596
6.4349369513951
6.42625318588577
6.41717689912801
6.40775037263445
6.39801426213991
6.38800660737685
6.37776393449776
6.36732138429528
6.35671302683104
6.34597234223992
6.33513274960886
6.32422818506537
6.31329379183909
6.30236668355727
6.29148696383997
6.28069882927096
6.27005221293261
6.25960445253753
6.24942314923344
6.23958873325027
6.23019979165147
6.22137692068895
6.21327333626232
6.20607793426092
6.20005609331094
6.19548699213008
6.19243173212083
6.19111838822704
6.19245193849745
6.19767679943369
6.20853961496751
6.2273730143496
6.25787566296124
6.30607074930156
6.39470920174842
6.46035283885089
6.39755095594159
6.30415244316976
6.26758918225466
6.32183373391895
6.46384946756526
6.67737566539083
6.94415142757065
7.25752659931427
7.60990358222283
7.99525126208427
8.41307920927495
8.88254392644308
9.41163311626604
9.99914130649899
10.6442598425372
11.3439326070173
12.0662943723093
12.7330889721779
13.3014447805253
13.733014936371
13.9522550321701
13.9405806752472
13.945708798723
14.6370052137042
16.139212617418
18.3264322245601
19.9988777724999
17.7267275788658
17.7136838084923
18.323921330446
22.0984336830725
35.1090425574445
39.6138870814913
26.3648057872764
13.8879352756889
10.0556044867294
8.7738148637683
8.00571523462344
7.48009217534853
7.13795089528584
6.9207948648701
6.74914734206043
6.57119631096053
6.37232547559412
6.16210277992747
5.95478239475305
5.76801236746816
5.61824219835426
5.51424099818545
5.45925546256425
5.45811355708936
5.51216262127882
5.60872407593098
5.71528418490996
5.77726993121552
5.75420369025336
5.72165282020248
5.71998659520713
5.7290410173531
5.74183468056718
5.7567295854922
5.77210469693279
5.78689756693723
5.80053320584649
5.81275500816903
5.82342781015451
5.83251553931821
5.84002899564793
5.84601359882659
5.85053264790596
5.85366153243276
5.85548142482856
5.85607641731909
5.85553086709738
5.85392802343591
5.85134889229963
5.84787156629733
5.84357088459316
5.83851821643763
5.83278135531338
5.82642425965969
5.81950581868957
5.81207947786051
5.80419371217562
5.79589351698837
5.78722179240922
5.77821908737706
5.76892460944181
5.75937598214743
5.74960861220448
5.73965651074347
5.72955250841014
5.71932859831743
5.7090163949241
5.69864765053409
5.6882548248117
5.67787175692796
5.66753442295001
5.65728191468898
5.64715754035647
5.63721037610792
5.62749695231413
5.61808389689017
5.60905059783763
5.60049400864123
5.59253286829382
5.58531699842477
5.57903242090139
5.57393200238782
5.57030460994336
5.5683322841188
5.56830322458742
5.57101392513055
5.57761967060827
5.5897644538894
5.60968063459325
5.64084878518783
5.68882030104222
5.77334737546845
5.84192146373582
5.80012550268452
5.72065476565187
5.67992132674722
5.71205474829735
5.81851348830846
5.98671520579978
6.20131925075263
6.45630551533782
6.74558776722996
7.06422073055506
7.4121383591809
7.8050596732929
8.2499534514433
8.74530489847645
9.28931029846713
9.87796721147183
10.4832673190694
11.039865759781
11.5120861906149
11.8706511331134
12.0579500450468
12.0591209085503
12.0719655073649
12.6314350860288
13.8724302020864
15.6992175922411
17.14918266107
15.479512152937
15.5441252733306
16.122930028168
18.9745979012749
30.4062930596993
37.1780715842478
27.4806289011795
14.3586140704205
9.55538356537536
8.05744435007031
7.28540516003133
6.78551403118351
6.46624136374778
6.26576739747115
6.10972290530257
5.95041256360249
5.77450551406848
5.59042233255995
5.41095466324938
5.2515110561877
5.12601987860362
5.04157145431592
5.00044907736253
5.00584284196407
5.05731955448528
5.14225930732078
5.23195132767285
5.28126947155971
5.26045233986805
5.23342734680541
5.23273782700053
5.24146923847915
5.25361331240602
5.26747959003193
5.28155057889149
5.29493134801243
5.30712216594739
5.31790132475906
5.32715752739464
5.33486825949592
5.34105421788536
5.34576758629778
5.34907701983944
5.35106193318423
5.35180667080118
5.35139764350231
5.34992082807053
5.34746040774374
5.34409772346214
5.33991064632185
5.33497330396718
5.32935592543436
5.32312476497611
5.31634149467636
5.30906252901339
5.30133901612823
5.29321738377316
5.2847406298833
5.27594945740925
5.26688222293847
5.25757574658524
5.24806522903167
5.23838388390542
5.22856358565405
5.21863514177311
5.20862865915744
5.1985739924775
5.1885012521192
5.17844136645194
5.16842673883125
5.15849199575764
5.148674930667
5.13901759143381
5.12956775496348
5.12038060311939
5.1115211934796
5.10306714401021
5.09511303731755
5.08777480496252
5.0811980535235
5.07556437752482
5.07111539873234
5.06814002638734
5.06688810146226
5.06769235213441
5.07127570444358
5.07871144961726
5.09153940223977
5.11187556802378
5.14297060252159
5.18994497407252
5.26987011787262
5.33913305267263
5.31402852646962
5.24802752029715
5.20702054802412
5.22424165618158
5.3044838528201
5.43836966655493
5.61312367226331
5.82336330909811
6.06411935212248
6.33131452359064
6.62518596726821
6.95881207630223
7.33832076330855
7.76216016014669
8.22804336078887
8.73149715108427
9.24777941493716
9.72174851604893
10.1232278936209
10.4288854645843
10.5930716344503
10.6027540549077
10.6188231677141
11.0770164947123
12.1122568962701
13.6537413053865
14.9197946768091
13.6673984180862
13.783083313862
14.3351552992133
16.5254122130815
26.2899388799174
34.5357323827862
28.2531741596964
15.2935780089799
9.3875928255647
7.57424216175173
6.75774664932564
6.26192600527237
5.95074839050856
5.75644766516437
5.60799246318916
5.46031998348843
5.3004061205628
5.13526514915502
4.97629393993015
4.83697749903031
4.72918112235595
4.65867092825604
4.62694480726725
4.63585333558196
4.68367531077994
4.75821157417949
4.8342550609726
4.87443176332711
4.85674177897011
4.835140280608
4.83596312030965
4.84497815627765
4.85695412144207
4.87023734989935
4.88344569228212
4.89581920262117
4.90692640509506
4.9165805312054
4.92469540725812
4.93126468423236
4.93632174357305
4.93992847353049
4.94216167935445
4.94310747931333
4.94285587541762
4.94149791921211
4.93912335109952
4.93581927546315
4.93166920198094
4.9267524704448
4.92114405575784
4.91491450295264
4.90812965913718
4.90085012646277
4.89313108475458
4.88502245174278
4.87656947969236
4.86781389791832
4.85879488515765
4.84954917809489
4.8401117597629
4.83051590158167
4.82079299736951
4.8109731075908
4.80108527250101
4.79115789866219
4.78121920431759
4.77129772211329
4.76142285556454
4.75162552325943
4.74193889616359
4.73239931066538
4.72304733664017
4.71392918573175
4.7050983596934
4.69661797780351
4.68856343749142
4.68102649833535
4.67411970317929
4.66798395847745
4.66279549189562
4.65878546484789
4.65623769583017
4.65543850423413
4.65675006735655
4.66084262019784
4.66871553188885
4.68180727913647
4.70211074742701
4.73264763138249
4.77813910918716
4.85330052946964
4.92175510071888
4.90977722616475
4.85623960507834
4.81734016744125
4.82464873673456
4.88533237528421
4.99275996243211
5.13642085776676
5.31157979144073
5.5141342298964
5.74071582177889
5.99178127830664
6.2783370209225
6.60579792976318
6.9727065421308
7.37659293324836
7.81281139970203
8.25943377775055
8.66958813040225
9.0174562160909
9.28362782924645
9.43047602880444
9.4455496719604
9.46186657498943
9.8404040295631
10.7109833324712
12.0221595275293
13.1331475602428
12.1780258370408
12.3268964301985
12.8523561695691
14.5743943465022
22.7339541322409
31.7830802778817
28.620434216927
16.5592133519461
9.51822916169508
7.27861465116118
6.374684282031
5.86385922340008
5.54920873125642
5.35326125326863
5.20660100181708
5.06558538093342
4.9167529698963
4.76550767008995
4.62187116102315
4.49763468409211
4.40294189407288
4.34248998278682
4.31713185850825
4.3276397047191
4.37139107003047
4.4368327476543
4.50192025048488
4.53562421703601
4.52158369725614
4.50523153673813
4.5079317959852
4.51766745657362
4.52984897157635
4.54290668881688
4.55560185739445
4.56728727400369
4.57759462852385
4.58637225888755
4.59356026868991
4.59917067075419
4.60325185019185
4.6058778169902
4.60713581068809
4.60712082593037
4.60593052785104
4.60366247058269
4.60041186861228
4.59627032469432
4.59132496742216
4.58565793677189
4.57934629494915
4.57246197437705
4.56507129390633
4.55723483412629
4.54900749215762
4.54043877198878
4.5315734232299
4.52245247853462
4.51311412416974
4.5035939361885
4.49392550009074
4.48414055492123
4.4742689842809
4.46433930292105
4.45437900221707
4.44441495491693
4.43447386260115
4.42458275606386
4.41476954744915
4.40506366368619
4.39549677234705
4.38610366734479
4.37692331407515
4.36800019921138
4.35938594116726
4.35114149476612
4.34333975932564
4.33606939798479
4.32943921513657
4.32358514301673
4.31867748869698
4.31493748715746
4.31264109750277
4.31209217920451
4.31366988378867
4.31800407052716
4.32602771876462
4.33908285360319
4.35903801431425
4.38869330056549
4.43239686088794
4.50281427684425
4.56946987510475
4.56771296571098
4.52539075825775
4.49000065861586
4.49093296550212
4.53693906712136
4.62370030398947
4.74270451625648
4.88986569748732
5.06178402907244
5.25568166130324
5.47217594319159
5.72061984619196
6.00581555416562
6.32646059700452
6.68008083565935
7.06205261530302
7.45291530279592
7.81264149006716
8.11893979265118
8.35492605544228
8.48829697743791
8.50635696159336
8.52084488354575
8.83545776880915
9.57247942249228
10.6949465850904
11.6733899558553
10.9347517335521
11.1044251629318
11.6018375782149
12.9943605485525
19.6965334709761
29.0147832600498
28.5607238271652
18.0074408696001
9.93575274988707
7.14888680445536
6.10805539584236
5.5630889937657
5.23483616513811
5.03079720650801
4.88130205160705
4.74306878611989
4.60159617068756
4.46049303741077
4.32838645951739
4.21553623032831
4.13061859624816
4.07744836150375
4.05634739628086
4.06723198548873
4.10687547037136
4.16449535811341
4.22085831854362
4.25012065678176
4.24002579747412
4.22872430320651
4.23355622496944
4.24433703826691
4.25701900782024
4.27013950341053
4.28260004292311
4.29385043182145
4.30358164073843
4.31167736243854
4.31810506207299
4.32289702796622
4.32611865043617
4.3278581226119
4.32821505550172
4.32729514724604
4.32520540192747
4.32205141985688
4.31793529812921
4.31295442745614
4.30720073449575
4.30076023494941
4.29371309733629
4.28613335734463
4.27808864318095
4.26964034719606
4.26084382678569