/*--------------------------------*- C++ -*----------------------------------*\
  =========                 |
  \\      /  F ield         | OpenFOAM: The Open Source CFD Toolbox
   \\    /   O peration     | Website:  https://openfoam.org
    \\  /    A nd           | Version:  7
     \\/     M anipulation  |
\*---------------------------------------------------------------------------*/
FoamFile
{
    version     2.0;
    format      ascii;
    class       volScalarField;
    location    "4000";
    object      p;
}
// * * * * * * * * * * * * * * * * * * * * * * * * * * * * * * * * * * * * * //

dimensions      [0 2 -2 0 0 0 0];

internalField   nonuniform List<scalar> 
15600
(
0.893880382320259
0.898271163620855
0.884470930752317
0.921640408616683
0.96193743739622
0.987177349786929
0.998182118375861
1.00692945404754
1.0118069600823
1.01606688315891
1.01906229844864
1.02155384178136
1.0235726758549
1.0252470299028
1.02666529118391
1.02799218229632
1.0294659697075
1.03111327949667
1.03297901320248
1.0350905604952
1.03739280880405
1.0396510921353
1.04180877623803
1.04391023015934
1.04584952396504
1.04760467000635
1.0492483729061
1.04918439658941
1.05022679257252
1.0534377367685
1.05765013147694
1.06266632815379
1.06821967452516
1.07417885547843
1.08042216170063
1.08686350656088
1.09342735815008
1.10005150561552
1.10668248497427
1.11327506456043
1.11979121659344
1.12619942249718
1.13247416318013
1.13859526149859
1.14454737249917
1.15031937164613
1.15590383342344
1.16129648537184
1.16649572873488
1.17150218149646
1.17631827758786
1.18094790489771
1.18539609790735
1.18966876338507
1.19377245946592
1.19771420314731
1.20150132122443
1.20514133638038
1.20864187532883
1.21201055896429
1.21525498734381
1.21838261613821
1.22140072759119
1.2243164705723
1.22713680787233
1.2298685323348
1.23251826575828
1.23509247241168
1.23759747542571
1.24003947621284
1.24242458453866
1.24475884241974
1.24704827206433
1.24929889800702
1.25151682830112
1.25370825660756
1.25587961823432
1.25803751791908
1.26018907118031
1.26234159682172
1.26450344822083
1.26668295047917
1.26889046331009
1.27113602396532
1.27343462470847
1.27579718499957
1.27824637245419
1.28079309502893
1.28347740734924
1.28630306980342
1.28935306116173
1.2925798848272
1.29623657136944
1.3005371831861
1.30406614126913
1.3077681735777
1.31121859187663
1.31452567044315
1.31751245934376
1.32003928368707
1.32164202134693
1.32221611572778
1.32141897059177
1.31913478873714
1.31505462902266
1.30988403791617
1.30342007856336
1.29519347702384
1.28461733471628
1.27053606141737
1.2504239205246
1.21867874587582
1.17279263908653
1.11091415991352
1.02424037963384
0.914718215908184
0.798711786144256
0.785031963702636
0.813627945647958
0.874539336863804
0.893908246866509
0.898425444918719
0.884753221321499
0.921259118449934
0.961185245819105
0.986623378233302
0.997826951573314
1.00666742027936
1.01162955085977
1.01592694235472
1.01896304827273
1.02147900910306
1.0235189927684
1.02520978252511
1.02663859126522
1.02796554080351
1.02943056500411
1.03106589980842
1.03291686449176
1.03501379674348
1.03730854534687
1.03956868529554
1.04173051050767
1.04383731492655
1.04578381600107
1.04754849793569
1.04920332938741
1.0491681005358
1.0502564844977
1.05347859286771
1.05769246334579
1.06270920094466
1.06826129942003
1.07421845120694
1.08045904559936
1.08689718456709
1.09345748913276
1.10007789991012
1.10670505551362
1.11329381334639
1.11980621670295
1.1262108040311
1.13248210003323
1.138599959512
1.14454905920791
1.15031828735688
1.15590022387894
1.16129059573977
1.16648779892908
1.17149244261018
1.17630694935174
1.18093519394881
1.18538219676553
1.18965384999147
1.19375669718517
1.19769774045172
1.20148428813512
1.20512387080092
1.20862415427638
1.21199271633014
1.21523707444047
1.21836467383873
1.22138280770143
1.22429861984035
1.22711906608751
1.22985093302124
1.2325008366943
1.23507523613785
1.23758044970875
1.24002267445834
1.24240801618059
1.24474251323528
1.24703218451207
1.24928305142715
1.25150121926587
1.25369287894001
1.25586446354186
1.2580225752083
1.26017432806542
1.26232703799675
1.26448905971631
1.26666871217251
1.26887634952258
1.27112200336985
1.27342069557806
1.27578332843145
1.27823262802561
1.28077945010104
1.28346402609973
1.28628997078739
1.28934105874254
1.29256818303682
1.29622634688021
1.30054574584196
1.304090795348
1.30781073563312
1.31127169366432
1.31458226564919
1.31755953568287
1.32005599670215
1.3216091642218
1.32211938550155
1.3212467038257
1.31888018468346
1.31473329302024
1.30950717378472
1.30296869693654
1.29464103150723
1.28392049588684
1.26960770249771
1.2491002376258
1.21685946052464
1.17052041174833
1.1082327199143
1.02153630881652
0.913050457755107
0.799568693211846
0.786438961822126
0.81422277249932
0.874643612986369
0.894006144210554
0.898830689688622
0.885597003745532
0.921365683522043
0.960581462231264
0.986145542850413
0.997507931461974
1.00642916238848
1.01146523574911
1.01579544165201
1.01886820616458
1.02140759043804
1.0234680697875
1.02517529038828
1.02661545298689
1.0279437166585
1.02939877475099
1.03101794604652
1.03284677966268
1.03491754692041
1.03718823372639
1.03943337309043
1.04158446404074
1.04368285359988
1.04562565286994
1.04738891579134
1.04904411960912
1.0490897624194
1.05027534622475
1.05350835606527
1.05771833919634
1.0627302267016
1.06827546335285
1.07422563056121
1.08045905705739
1.08689010342876
1.0934435515911
1.10005749418704
1.10667864424294
1.11326191943318
1.11976939768427
1.12616963444739
1.13243715541627
1.13855180320514
1.14449823235779
1.15026530114205
1.15584555440777
1.16123468079876
1.16643103656195
1.17143519096543
1.17624952767599
1.18087788427682
1.18532524621187
1.18959747339414
1.19370107994113
1.19764303920058
1.2014306615678
1.20507143793229
1.20857291377208
1.21194267773413
1.21518831794242
1.21831726698019
1.22133679872399
1.2242540451254
1.22707595358024
1.22980930370515
1.23246070578912
1.23503661429481
1.23754334410358
1.23998708979712
1.24237395570697
1.24470997960466
1.24700118083069
1.24925358200983
1.25147329093804
1.2536665015752
1.25583965214089
1.25799934974296
1.26015271763414
1.26230707847646
1.26447080058284
1.26665221696479
1.2688617259264
1.27110934711471
1.27341015906739
1.27577506328359
1.27822696045752
1.28077661213734
1.28346469193074
1.28629432421389
1.28935055399816
1.29258267422507
1.29623338593425
1.30055460724665
1.30409857779267
1.30782433892016
1.31128285512937
1.31458533845815
1.31754078841107
1.31999712728789
1.32149592273545
1.32194279110427
1.32099949788964
1.31856194699674
1.31436097534531
1.30908385289862
1.30246981528193
1.29403956643021
1.28317269737808
1.26863088977244
1.2477694946194
1.21515295896352
1.16855435214829
1.10619854138187
1.020106433072
0.913649756351307
0.803380112585019
0.79005564825789
0.81580533806551
0.874940760512753
0.894215490959638
0.899523028299985
0.887104039410834
0.922170586778906
0.960193833467615
0.985728815783512
0.997211012789198
1.00620119695627
1.01130600256169
1.01566516535484
1.01877257916133
1.02133580918163
1.02341781838901
1.02514289880614
1.02659613736783
1.02792681993539
1.02936886670764
1.03096513227132
1.03276173686087
1.03479266593762
1.03702205052885
1.03923691383112
1.04136563366479
1.04344624971175
1.04538005318663
1.04713942893849
1.04879626945444
1.04897911312266
1.05029567910112
1.05353279421468
1.0577299103882
1.06272780884801
1.06825739802541
1.07419271193663
1.08041208917926
1.08683007853559
1.09337152414347
1.09997463239802
1.10658614664319
1.11316100378715
1.11966126992904
1.12605546842397
1.13231807436129
1.13842886516266
1.14437242024806
1.1501375159654
1.15571661230323
1.16110531258879
1.16630188977223
1.17130683338805
1.17612245231012
1.18075251495558
1.18520194379006
1.18947654212678
1.19358277344356
1.19752757263757
1.20131816856908
1.20496198667761
1.20846661080946
1.21183962562734
1.21508857244034
1.21822086632189
1.22124376495163
1.22416438867507
1.22698967659013
1.22972640252736
1.23238117308979
1.23496044113087
1.23747052185738
1.23991761200924
1.24230781996983
1.24464718930929
1.24694174727915
1.24919752618246
1.25142064629068
1.25361731578052
1.25579399152943
1.25795730046356
1.26011439398129
1.26227262160043
1.2644403926247
1.2666261038062
1.26884025947519
1.27109285464015
1.27339908591655
1.27576991698752
1.27822858678541
1.28078578786135
1.28348295195842
1.28632249785048
1.28939097999358
1.2926368135237
1.29626840966377
1.30056127519676
1.30407896771007
1.30779105639115
1.31122733483403
1.31450375932877
1.31741819225283
1.31981693316305
1.32124854359959
1.32162374652678
1.32060526208202
1.31809772946651
1.31384722938335
1.30851818569693
1.30182170113747
1.2932782125909
1.28224916675021
1.26745885870741
1.24624303738782
1.21330293238252
1.16654287787684
1.10429847979242
1.01912362699159
0.915233674585327
0.808746151637288
0.79529257184728
0.818486919121249
0.875542625618492
0.89453841232466
0.900422533438837
0.888990396840678
0.923442217046239
0.96010794983594
0.985385285716614
0.996933495973743
1.00596677053462
1.01114164514933
1.0155300675781
1.01867279098544
1.02126215816941
1.02336853905186
1.02511468790881
1.02658403396961
1.02791877259413
1.02934531684824
1.03091325225731
1.03267008680445
1.03465222885472
1.03683067550497
1.03900804307448
1.0411098749086
1.04317018308065
1.04509527153413
1.04685463735927
1.04851954532767
1.0488604188758
1.05031054331722
1.05354801399379
1.0577291131683
1.06270770766858
1.06821659765059
1.07413236133568
1.08033333948187
1.08673442816572
1.0932605165168
1.09984989782983
1.10644932438338
1.1130137272205
1.11950513457179
1.12589200942468
1.13214874740457
1.13825503102087
1.14419533511184
1.14995832509532
1.15553634823091
1.16092489604791
1.16612213347509
1.17112844749103
1.17594605138845
1.18057862570386
1.18503101330351
1.18930894625332
1.19341882378315
1.19736751543987
1.20116219346661
1.20481026308936
1.20831928203191
1.2116967826429
1.21495026860823
1.21808713444909
1.22111462305965
1.22403984234171
1.22686972248202
1.22961103163433
1.23227037347259
1.23485420062743
1.23736883063466
1.23982046501312
1.24221521947986
1.24455914735174
1.24685828853545
1.24911869053405
1.25134649269834
1.25354792496297
1.25572947205994
1.25789779100957
1.26006007445215
1.26222371308252
1.26439717759864
1.26658893947359
1.26880966912626
1.27106935745259
1.27338333045004
1.27576263681364
1.27823094875373
1.28079889133146
1.28350877539121
1.28636222034992
1.28944680047176
1.29271064370444
1.29631832531275
1.30056648475464
1.30404048661697
1.30772295413146
1.31112012636277
1.31435423727065
1.31720976548475
1.31953287940712
1.32088056684189
1.32116948416848
1.32006323468611
1.31747673772441
1.31317060642924
1.30778202270888
1.30099120094575
1.29231750949559
1.28110173558623
1.26602925686221
1.2444247293342
1.21114652034842
1.16423235367018
1.10214452078896
1.01798214561872
0.91683266240278
0.81433579013772
0.800991738935877
0.821676514773462
0.876363374884584
0.894976771816761
0.901470865768294
0.891035653088152
0.924903218374795
0.960328787407628
0.985154824518466
0.996723245610622
1.00572983779127
1.01097157119476
1.01539201079538
1.01857191249692
1.02119023597798
1.02332416173399
1.02509466809539
1.02658269914179
1.02792254036143
1.0293317719666
1.0308677237537
1.03257998740402
1.034508169485
1.0366304121261
1.03876608196168
1.04083814122347
1.04287667034768
1.04479288903118
1.04655432546677
1.04823001646186
1.04873200969737
1.05031134628095
1.05355119990784
1.0577184463453
1.06267622388856
1.06816256250407
1.07405656758695
1.08023694875412
1.08661908696149
1.09312796877654
1.09970198012533
1.10628789185762
1.11284062412318
1.11932216128205
1.12570089526558
1.13195113053203
1.13805244128071
1.14398918395741
1.14974989887449
1.15532680658848
1.16071527322179
1.16591334271797
1.17092128731938
1.17574121343527
1.18037670338313
1.18483251113381
1.18911428883709
1.1932283638232
1.19718153043233
1.20098091306841
1.20463387786533
1.20814792569238
1.21153055069486
1.21478922848972
1.21793133012586
1.22096408128225
1.22389457546383
1.22672973260415
1.22947631423059
1.23214092053415
1.23473000373043
1.23724988383951
1.23970676765181
1.24210677905085
1.24445598226625
1.24676043138791
1.24902619099132
1.25125942180338
1.25346637816625
1.2556535758741
1.25782770556191
1.25999600546725
1.26216591206191
1.26434596462681
1.2665447066682
1.26877298087775
1.27104080613067
1.27336363352405
1.27575255250841
1.27823166426403
1.280811466038
1.28353504388679
1.28640306176729
1.28950302056647
1.29278326654307
1.29636645355338
1.30056787158318
1.30399122806879
1.30763449647408
1.31098123290992
1.31416138843031
1.316945370923
1.31918004556328
1.32043093543374
1.32062151849198
1.31941668012729
1.31674236282848
1.3123723312826
1.30691477013602
1.30001765872401
1.29119808760735
1.27977398809558
1.26439180210481
1.24237118343186
1.20874002282752
1.16167448133955
1.09977961938557
1.01670522677597
0.918383235053958
0.819934864033816
0.806826903081007
0.825116402908793
0.877368245655193
0.895531022197558
0.902641518410331
0.893180184929563
0.92647573052636
0.960759372032692
0.985031697614885
0.996628275171996
1.0055130459718
1.01080118855949
1.01525520293666
1.01847404606426
1.02112333781078
1.02328702423626
1.02508394262764
1.02659195636578
1.02793722367014
1.02932798041297
1.0308297201065
1.03249439629102
1.03436533385543
1.03642761527555
1.03851790505766
1.04055713798007
1.04257187697696
1.04447790834019
1.04624207018281
1.04792920204383
1.04859255030495
1.05029723321903
1.0535423135114
1.05769869152935
1.06263529823705
1.06809831737529
1.07396922090614
1.08012761434591
1.08648942105099
1.09297980988982
1.0995372750378
1.10610862784823
1.11264878016793
1.11911967466409
1.12548962853059
1.13173285020024
1.13782879853127
1.14376170376578
1.14951997250052
1.15509568972354
1.16048408718079
1.16568307902416
1.17069281427899
1.17551528441024
1.18015396600578
1.18461351727189
1.18889950305542
1.19301816715769
1.1969762299171
1.2007807576927
1.20443906254625
1.20795859738893
1.21134682065427
1.21461117694566
1.217759011275
1.22079752972347
1.22373380968734
1.22657475961195
1.22932713343509
1.2319975272028
1.23459239231173
1.23711805110304
1.23958071570004
1.24198651842451
1.2443415348876
1.24665183401862
1.24892349828955
1.25116271079139
1.25337575137728
1.2555691681372
1.25774968655016
1.25992459175896
1.26210136703128
1.2642886223474
1.26649496831224
1.26873140906647
1.27100800960874
1.27334034481526
1.27573949365635
1.27822994507902
1.28082199235176
1.28355933567736
1.28644152933245
1.28955500154228
1.29284864947658
1.29640693360077
1.30056277152896
1.30393272016078
1.30753046213018
1.31081830730357
1.31393526474069
1.31663779999404
1.31877425770939
1.31991839904286
1.32000110117832
1.3186890638236
1.31591957566335
1.3114777354774
1.30594168037822
1.2989271484609
1.28994798685303
1.27829754230125
1.26258480416819
1.24013110319213
1.20614304957037
1.15893890838131
1.0972826440565
1.0153788371865
0.919955062072563
0.825555968830825
0.812742718804559
0.828741437982794
0.878544145245512
0.896194614151857
0.903914479852239
0.895398214132172
0.928122990168935
0.961297041402806
0.984986680047985
0.996639624155811
1.00534638153252
1.01063776098414
1.01512248872756
1.01838127306155
1.02106243825573
1.0232570683969
1.02508143636941
1.02661003932757
1.02796093403661
1.02933266208526
1.0307988790416
1.03241391657808
1.03422523077335
1.03622449393526
1.0382660634878
1.04026950214581
1.04225836531172
1.04415263709192
1.0459202096476
1.04761942970168
1.04844356376535
1.05026936885449
1.05352223051303
1.05767067207364
1.06258617147189
1.0680255648268
1.07387244266943
1.08000784669789
1.08634826038274
1.09281913831659
1.09935909891704
1.1059150214364
1.112441814933
1.11890138666356
1.12526197905526
1.1314977035466
1.1375879003729
1.14351666941919
1.14927227840932
1.15484667110678
1.16023493883688
1.1654348597728
1.17044645355871
1.17527159066227
1.17991363618297
1.18437714673172
1.18866759272659
1.19279112579359
1.19675439014399
1.20056439135565
1.20422838452009
1.20775377472177
1.21114798056605
1.21441841170116
1.21757238482134
1.22061708450285
1.22355957048624
1.2264067385191
1.22916533396181
1.2318419479851
1.23444303064781
1.23697490628942
1.2394437922208
1.24185582921451
1.24421710441802
1.24653370187275
1.24881172231794
1.25105737163976
1.25327695565735
1.25547705517106
1.25766443079365
1.25984641464503
1.26203053633927
1.26422547645312
1.26643990702831
1.26868497942583
1.27097080909015
1.27331309525558
1.27572286074553
1.27822492842058
1.28082930886275
1.28358015064265
1.28647576274208
1.28960073568594
1.29290464477763
1.29643730152752
1.30054895386486
1.30386403406906
1.30741144681875
1.31063334418823
1.31367891187327
1.31629116944243
1.31832078131075
1.3193493578094
1.3193155657716
1.31788846705146
1.31501682631583
1.31049510363346
1.3048705993138
1.29772739135169
1.28857523512285
1.27668150468456
1.26062000779439
1.23772089141437
1.20337749759327
1.15605285508305
1.09468522235802
1.01403628303257
0.921569035404455
0.831190085033758
0.818694041889139
0.832499824033225
0.879865918257338
0.896961848841156
0.905273818407188
0.897671009141739
0.929785060787463
0.961895622653723
0.985019180402031
0.996698360186869
1.00525723190125
1.01048976513602
1.01499524646102
1.0182939694533
1.0210071285771
1.02323326392758
1.02508564241856
1.02663527263444
1.02799216598675
1.02934483074393
1.03077487735773
1.03233889669292
1.03408885486129
1.03602263238454
1.03801255006388
1.03997745476494
1.0419384960852
1.0438194889487
1.04559140639997
1.04730358863656
1.04828683489312
1.0502288191187
1.05349186028067
1.0576352971136
1.0625300921827
1.06794594304067
1.07376823184901
1.07987997542583
1.08619821044372
1.09264879461902
1.09917048482588
1.10571025958212
1.11222303238099
1.11867068440446
1.12502138607496
1.13124915403583
1.13733320977861
1.14325752185958
1.14901021704826
1.15458309514447
1.15997110371262
1.16517188121513
1.1701853139508
1.17501314727032
1.17965863069568
1.18412621380278
1.18842126488607
1.19254984081407
1.19651850959372
1.20033421250984
1.20400414578818
1.20753566278033
1.21093613887345
1.2142129461567
1.21737337086828
1.22042457423997
1.22337359678285
1.22622732025012
1.22899248030663
1.23167566234811
1.23428331436908
1.23682176213964
1.2392972277303
1.24171586005174
1.2440837575742
1.246407019298
1.24869176411991
1.25094422058409
1.25317072028997
1.25537787637432
1.25757248399091
1.25976192116113
1.2619537620932
1.26415675581324
1.2663796290196
1.2686336641784
1.27092902225238
1.27328152450021
1.27570209528427
1.2782158276057
1.28083236758405
1.28359614327427
1.2865040898029
1.2896383834578
1.2929492022502
1.29645536405248
1.30052450369147
1.30378396912091
1.30727731278734
1.31042727280759
1.31339404324439
1.31590793441575
1.31782279426196
1.31872766043777
1.31856928276189
1.31701961505466
1.31403886327082
1.30942879228643
1.30370531890839
1.29642175809101
1.28708297406517
1.2749293017351
1.25850220163335
1.23514807416268
1.20045436306759
1.15303117442266
1.09200586425052
1.01269713375328
0.923233093402554
0.836824804355133
0.824650094902611
0.836357167329114
0.881314663071612
0.897829842284489
0.906707994763834
0.899988395085246
0.931411708763915
0.962546563204475
0.985143411769964
0.996757323645593
1.00526268270834
1.01036899177544
1.01487510462976
1.0182122230421
1.02095690417593
1.02321471548565
1.02509542825912
1.02666650994679
1.02802996221456
1.02936392909137
1.03075765464951
1.03226977916737
1.03395713802284
1.03582342880364
1.03775909281021
1.0396829048437
1.04161430725606
1.04348057974832
1.0452579209939
1.04698402498471
1.04812382274084
1.05017658388816
1.05345208028379
1.05759340713083
1.06246818296269
1.0678609071123
1.07365835522276
1.07974605613068
1.08604157133736
1.09247128927087
1.09897411683472
1.10549716634158
1.11199536406861
1.1184305769385
1.12477090842934
1.13099028528864
1.13706781288026
1.1429873302525
1.14873682386604
1.15430794942415
1.15969550982181
1.1648970022985
1.16991217784266
1.1747426543598
1.17939156275366
1.18386324072718
1.18816294797731
1.19229664791852
1.19627083244101
1.20009237430737
1.20376840829727
1.20730623291168
1.21071317785693
1.21399657546182
1.21716367946187
1.22022162588537
1.22317743439351
1.22603797135585
1.22880996149109
1.23149998335219
1.23411448193889
1.23665978364711
1.2391421146077
1.2415676312466
1.2439424427941
1.24627266265482
1.24856442732218
1.25082398732893
1.25305769927269
1.25527220751654
1.25747434034515
1.2596715195302
1.26187136093331
1.26408267796515
1.26631424410757
1.26857745529274
1.2708825061285
1.27324533295054
1.27567672168892
1.27820196393494
1.28083025748241
1.28360614133358
1.2865250496058
1.28966633865176
1.29298053615064
1.29645918615009
1.30048762881286
1.30369115103411
1.30712747494757
1.31020040590405
1.31308166489417
1.31548976086292
1.31728258528297
1.31805618480324
1.31776561477303
1.31608620988553
1.31298941479764
1.30828219062551
1.30244874058834
1.29501275399277
1.2854734561571
1.2730434289909
1.25623514042711
1.23241898391104
1.19738343671467
1.14988780891242
1.08926294462834
1.01138179373439
0.924958282022311
0.842455516903985
0.830595025153509
0.840296166561104
0.882880596693175
0.898797822907032
0.908208903789648
0.902344666913065
0.93297506116752
0.96323750950793
0.985355761310181
0.996815724314986
1.00535930993767
1.01029127891481
1.01476511641546
1.01813647238702
1.02091157206065
1.02320088590184
1.02511005722327
1.0267029967691
1.0280737069181
1.02938963816961
1.03074727056283
1.03220701131617
1.03383090680021
1.03562808068236
1.03750716012242
1.03938747563507
1.04128754466855
1.04313774674997
1.0449216689302
1.04666266658897
1.04795582705262
1.05011370366814
1.05340378504141
1.05754579305827
1.06240145818577
1.06777174459955
1.0735443670789
1.07960789336909
1.08588036247282
1.09228882774328
1.09877235443892
1.10527822558566
1.11176138930567
1.11818371212333
1.12451323758947
1.13072380981825
1.13679442309599
1.14270879128868
1.14845476365811
1.15402385404439
1.15941072198082
1.16461272399868
1.16962947565581
1.17446246668393
1.17911470665946
1.18359041694902
1.18789474683048
1.19203356874804
1.19601329617354
1.19984073056792
1.20352294283661
1.20706717430371
1.21048070680677
1.2137708308161
1.21694476560543
1.22000962014676
1.22297239159861
1.22583992947672
1.22861894618667
1.23131601222061
1.23393756847121
1.23648994094265
1.23897935888355
1.24141198533404
1.2437939394091
1.24613134800275
1.24843036424126
1.2506972594993
1.25293841405855
1.25516050173772
1.25737038181535
1.25957551669157
1.26178355989792
1.26400338343913
1.26624379867581
1.26851629613995
1.27083108720596
1.27320421086359
1.27564627642424
1.27818269756932
1.28082213936835
1.2836090889504
1.28653735122609
1.28968322216606
1.29299717168584
1.29644710982227
1.30043657881395
1.30358398515763
1.30696087870086
1.30995241909933
1.31274205231967
1.31503750447811
1.31670154202041
1.31733683526725
1.31690690965716
1.31509091258218
1.31187115951444
1.30705768351426
1.30110283330709
1.29350199432541
1.28374806213789
1.2710255330454
1.25382171734411
1.22953904298542
1.19417363779499
1.14663598611767
1.08647442114739
1.01011032623045
0.926756235395744
0.848080718777402
0.83651926452384
0.844307039311356
0.884558687210035
0.899866333921402
0.90977087508358
0.904735529324193
0.934467296313232
0.963948832402161
0.98564105455073
0.996895581821976
1.00551908404747
1.01027475059543
1.01467054052469
1.01806769586423
1.0208712616016
1.02319153415431
1.02512906761638
1.02674421810372
1.02812297862484
1.0294217657322
1.03074384031544
1.0321510314793
1.03371091928403
1.03543767019368
1.03725808540274
1.03909265777269
1.04095982949471
1.04279271507677
1.04458440168
1.04634123287698
1.04778407235193
1.05004125561113
1.05334790212412
1.05749324334198
1.0623308923092
1.06767966375767
1.07342771492018
1.07946716115924
1.08571645537721
1.092103453454
1.09856738382979
1.10505573887908
1.11152349810368
1.11793254323948
1.12425086668753
1.13045223935118
1.1365155517493
1.14242439923027
1.14816649928254
1.15373322834766
1.15911910600094
1.16432135050338
1.16933944364386
1.17417474723718
1.17883014787694
1.18330974628174
1.18761858513798
1.19176244735271
1.19574766450243
1.19958096521653
1.20326935460907
1.20682001487583
1.21024017798694
1.21353709060055
1.21671793565817
1.21978979324142
1.2227596363261
1.22563429602824
1.22842047096385
1.23112472220414
1.23375348524935
1.23631308449243
1.23880975112608
1.24124965363933
1.24363891985984
1.24598368891481
1.24829012921801
1.25056453138778
1.25281329757431
1.25504312865662
1.25726091208884
1.25947414685754
1.26169051921952
1.26391895237541
1.26616828561201
1.26845008407509
1.27077455534873
1.27315782296866
1.27561028260539
1.27815739032376
1.2808071947234
1.28360397804085
1.2865397843126
1.28968776422273
1.2929977874175
1.29641762743861
1.30036961404597
1.30346071441292
1.30677611452599
1.30968249723106
1.31237491883857
1.31455140687917
1.3160803768964
1.31657078721648
1.31599474853346
1.31403558630037
1.31068595792034
1.30575686432612
1.29966883394128
1.29189040782377
1.28190752187462
1.26887665717528
1.25126423415248
1.22651304065945
1.19083322770809
1.14328828696261
1.08365760643886
1.00890170817537
0.928637487557044
0.853699289340332
0.842415721459127
0.848383055730034
0.886346116563711
0.901036696768448
0.911390029047078
0.907157268391185
0.935896364871843
0.964655512175499
0.985981279083178
0.997024602674515
1.00569643865381
1.01033630613041
1.0145996410607
1.01800765370874
1.0208364441612
1.02318668606105
1.02515221736506
1.02678982822634
1.02817748213097
1.02946019939337
1.03074751687227
1.03210228238455
1.03359790862481
1.0352532337786
1.03701315267076
1.03879990158814
1.0406327479899
1.04244717710416
1.0442477832646
1.04602131566553
1.04760973307046
1.0499603547616
1.05328540132556
1.05743657127237
1.06225746085222
1.06758584590545
1.0733098021704
1.07932547472663
1.08555165308306
1.09191713349789
1.09836130896396
1.10483192091717
1.11128399013764
1.11767943071082
1.12398619431919
1.13017799010748
1.13623361429527
1.14213655261289
1.14787439842545
1.15343839738758
1.1588229345434
1.1640250941927
1.16904422765558
1.17388156970749
1.17853988269608
1.18302314709062
1.18733630399655
1.19148504595305
1.19547562101543
1.19931468378915
1.20300917213348
1.20656620748631
1.20999297018371
1.21329666128835
1.21648442562902
1.21956331258646
1.22254026925
1.22542210671791
1.22821550823488
1.23092702395232
1.23356308252383
1.23613000531317
1.23863402405631
1.24108131126571
1.2434780020178
1.24583024608013
1.24814422543333
1.250426247896
1.25268273517868
1.25492041220994
1.25714619113479
1.25936760257718
1.26159235964959
1.26382942780348
1.26608766322219
1.26837868450444
1.2707126721786
1.27310581056229
1.27556824536346
1.27812539319242
1.28078460397746
1.28358981491579
1.28653117191286
1.28967873868038
1.29298112446759
1.29636930290216
1.3002849891207
1.30331946885013
1.30657151464187
1.30938945852346
1.31197955939359
1.31403126578791
1.31541932952007
1.31575871870591
1.31503019796055
1.31292156456905
1.30943513306574
1.30438082233953
1.29814754156827
1.29017855146653
1.27995226693678
1.2665976431548
1.24856486126831
1.22334566340061
1.18737038725197
1.13985722200116
1.08082966238268
1.00777415224069
0.930611480139673
0.85931005511578
0.848278805005753
0.852519195514473
0.888241260776464
0.902310637270063
0.913063843035425
0.909606518245452
0.937280148635145
0.965329121191607
0.986357048790789
0.997215343269629
1.00585773533651
1.01048622903569
1.01456429351819
1.0179592979861
1.02080801328646
1.02318664954051
1.02517947450982
1.0268396235662
1.02823701496323
1.02950488072216
1.03075847907081
1.03206121522031
1.03349260251514
1.0350757942269
1.03677363553177
1.03851065798861
1.04030788883029
1.04210282402773
1.0439134249371
1.04570442184526
1.04743395831224
1.04987216766412
1.05321730563425
1.05737663150978
1.0621821642121
1.06749147305035
1.07319202022411
1.07918442624027
1.08538772898028
1.09173179998285
1.09815619497644
1.10460894457959
1.11104512109082
1.11742668942288
1.12372157256913
1.12990343130229
1.13595097910022
1.14184760313257
1.14758078244743
1.15314164060653
1.1585244355171
1.16372612366351
1.16874593016453
1.17358496555548
1.1782458657246
1.18273249820857
1.18704970588023
1.19120308911285
1.19519881246528
1.19904345576115
1.20274388856596
1.20630717027183
1.20974042805852
1.21305081578104
1.21624543846893
1.21933131302134
1.22231535891879
1.22520436555613
1.22800499912405
1.23072379722007
1.23336718003053
1.23594146427589
1.23845288060889
1.24090760388076
1.24331177466099
1.24567155142799
1.24799312763258
1.25028282580379
1.25254708441095
1.25479264880443
1.25702645167044
1.25925604941256
1.2614891752204
1.26373482634301
1.26600186373598
1.26830193700385
1.27064517438845
1.27304779173092
1.27551964890876
1.27808603993718
1.2807535361578
1.28356560493139
1.28651034979253
1.28965493578381
1.29294595019374
1.29630073663274
1.30018094351186
1.3031582916998
1.30634520887533
1.30907182611693
1.31155493003494
1.31347652616033
1.31471827519885
1.31490093693482
1.31401394970232
1.31174980229323
1.30811963283244
1.30293031535254
1.29653949997098
1.28836681253897
1.2778826653777
1.26418940424086
1.24572595124815
1.22004186100779
1.18379361791562
1.13635562448548
1.07800793407058
1.00674533762757
0.932686676121828
0.864911707919146
0.85410396327058
0.856711475115771
0.890243123591295
0.903690023614992
0.914790827354821
0.912080069480172
0.938640404928301
0.96594302849011
0.986747117323603
0.997463142037073
1.00599891145981
1.01071984005134
1.01457962416579
1.01792735167414
1.02078742450862
1.02319205639586
1.02521103332725
1.02689354034966
1.02830145383697
1.02955579115702
1.03077692298766
1.0320282890145
1.03339573121665
1.0349063762857
1.03654081729755
1.03822640033604
1.03998686353427
1.04176136482172
1.04358291101775
1.04539200890425
1.04725789664577
1.04977792567285
1.0531447010155
1.05731433467875
1.06210604454439
1.06739774724947
1.07307576989945
1.07904560771874
1.08522645091917
1.09154937496721
1.09795409379019
1.10438896699835
1.11080912904084
1.11717661529898
1.12345933368328
1.12963091183753
1.13566999409493
1.14155988221333
1.14728795282718