/*--------------------------------*- C++ -*----------------------------------*\
  =========                 |
  \\      /  F ield         | OpenFOAM: The Open Source CFD Toolbox
   \\    /   O peration     | Website:  https://openfoam.org
    \\  /    A nd           | Version:  7
     \\/     M anipulation  |
\*---------------------------------------------------------------------------*/
FoamFile
{
    version     2.0;
    format      ascii;
    class       volVectorField;
    location    "4000";
    object      U;
}
// * * * * * * * * * * * * * * * * * * * * * * * * * * * * * * * * * * * * * //

dimensions      [0 1 -1 0 0 0 0];

internalField   nonuniform List<vector> 
15600
(
(0.108372915263913 -0.000341598479095512 -1.16349394967993e-21)
(0.12851853410571 -0.00353554042703891 -2.3935223954991e-18)
(0.0947532148924549 -0.0123793719799346 0)
(0.0141803728466814 -0.00678544527865113 -2.02314522658312e-17)
(-0.0390080672638948 0.0150085959762057 -2.3938824525205e-21)
(-0.0388419910653128 0.0218783491509892 -1.51614254129576e-20)
(-0.0258517016698186 0.0174876160856388 -4.17968883182655e-17)
(-0.0202570321194964 0.0151275717012627 4.3060943960144e-17)
(-0.0165406503001059 0.0131523219975193 -1.26039618556362e-14)
(-0.0153027755535497 0.0123885876386309 -1.32264944724578e-14)
(-0.0143747398940867 0.0115606090092913 1.22251597581743e-20)
(-0.014244969444585 0.0112635332836084 -2.56821128451958e-20)
(-0.0143316520663713 0.0111885892269899 2.70229080533537e-20)
(-0.0148623382959826 0.0114931592520125 -5.7735707538896e-17)
(-0.0159849078782878 0.012272117305326 -6.00894813600764e-17)
(-0.0178234552552673 0.013585756136206 -6.06775097675798e-20)
(-0.0201247111078461 0.0151833651367022 -6.39291314479969e-17)
(-0.0226838255497145 0.0167084668830117 1.32291855173943e-16)
(-0.0254875953245914 0.0180106606405814 -6.83576531123396e-17)
(-0.0283367933732034 0.0188343831124703 -7.12877635317053e-17)
(-0.0309050296458816 0.0188792132292748 7.40293880563412e-17)
(-0.0332398777422105 0.0180935391801254 -7.68672540417693e-17)
(-0.0356006661870554 0.0167225119787507 -3.16536703441021e-22)
(-0.0377588543609673 0.014776289979407 8.16368039172157e-17)
(-0.0395074947821994 0.0122259772042926 0)
(-0.0407908443141624 0.0091406310504268 0)
(-0.0406016432224547 0.00546996460317498 -6.20811041067607e-15)
(-0.0445437204584692 0.00199081037549966 -6.21946242547667e-15)
(-0.0562276279085364 0.000472498659702981 1.9333558033646e-23)
(-0.0660709227212962 0.000471416379140259 5.6349239887334e-31)
(-0.0714444003807692 0.00045979739408916 0)
(-0.0747922775421314 0.0004483345789612 -6.5271364755947e-15)
(-0.0765924033410292 0.000438695983797147 -6.59919532819074e-15)
(-0.0773044531537695 0.000424540524206062 0)
(-0.0771221551011292 0.000407736710064167 0)
(-0.07623098045859 0.000388896926461378 0)
(-0.0747478579335601 0.000368507326625283 0)
(-0.0727712696516676 0.000346888156157619 -7.72486321225379e-20)
(-0.0703817285809887 0.000324569172835811 6.43312820930907e-15)
(-0.067650910464758 0.000302006658834732 6.56068362687346e-15)
(-0.0646423321193412 0.000279584877380241 -7.89250647424136e-20)
(-0.0614130102113252 0.000257624175547647 -8.024037288726e-20)
(-0.0580139938254007 0.000236363180836791 8.07126311485587e-20)
(-0.0544906700841185 0.000215983171210462 -8.21187960131796e-20)
(-0.0508831563093116 0.000196603413720629 8.26973864192729e-20)
(-0.0472265182546803 0.000178299640180473 0)
(-0.0435511539371609 0.000161106575404286 -7.33647288531709e-15)
(-0.0398831034044886 0.000145030098566812 -7.47829188285236e-15)
(-0.0362444550552106 0.000130051887421764 -8.72098211114608e-20)
(-0.0326537127611861 0.000116136806262857 4.4068939114258e-20)
(-0.0291261925977585 0.000103237041647054 -4.48107324697575e-20)
(-0.0256743992373613 9.12969759452525e-05 9.05625311918904e-20)
(-0.0223083826192242 8.02552308337853e-05 -7.62310372472634e-15)
(-0.0190360794900571 7.0048495747136e-05 -7.74242590582933e-15)
(-0.0158636316669255 6.06122709826181e-05 -2.34358843625298e-20)
(-0.0127956720261625 5.18875601425577e-05 0)
(-0.00983557695788722 4.38007596361194e-05 1.39821192976928e-30)
(-0.00698562611393024 3.60782096808618e-05 -1.21619938361705e-20)
(-0.00424711607131848 2.82742361154275e-05 1.84049348760814e-20)
(-0.00162054026677763 2.06180814357147e-05 -6.19423220989342e-21)
(0.000894125363038687 1.3743022726655e-05 0)
(0.00329736295562837 7.61982369346921e-06 1.2473729146914e-20)
(0.00558995881878714 1.94695556129839e-06 -1.2423096648898e-20)
(0.00777275248180518 -3.3585162924648e-06 1.44601017474684e-30)
(0.00984669791044802 -8.34224527689783e-06 0)
(0.0118127293721235 -1.30502853489217e-05 -2.48154646784402e-20)
(0.0136717122554759 -1.75253370990587e-05 2.4742871532846e-20)
(0.0154243613547414 -2.18079603424569e-05 0)
(0.0170711811415037 -2.59369158676136e-05 0)
(0.0186123867666713 -2.99492159282961e-05 0)
(0.0200478464652575 -3.38815758817445e-05 0)
(0.0213769815520493 -3.77692644440478e-05 0)
(0.0225987165964911 -4.16494721443078e-05 8.27647780320768e-15)
(0.0237113201129832 -4.55573860372873e-05 1.65142346315756e-14)
(0.0247123865410738 -4.9534417522911e-05 8.23568441416059e-15)
(0.0255985314273721 -5.36167790029896e-05 -1.98700888321712e-19)
(0.0263654902402543 -5.78567341650486e-05 9.94202251802502e-20)
(0.0270074528993886 -6.22906282687802e-05 -9.9778836046087e-20)
(0.0275175488596227 -6.69955621968928e-05 9.98308033543269e-20)
(0.0278862480293659 -7.20019928501485e-05 8.38506032896272e-15)
(0.0281031854752228 -7.74507791394809e-05 8.32785974182136e-15)
(0.028153145705441 -8.33562225882487e-05 -1.00744469808438e-19)
(0.0280222716937791 -8.99628194998032e-05 1.01290858436176e-19)
(0.0276869208578454 -9.71476468700977e-05 -2.03260861005498e-19)
(0.0271250753299353 -0.000105489364846604 1.02033869063569e-19)
(0.0262886438639287 -0.000114394865953086 -2.05608019269953e-19)
(0.0251444277693336 -0.000125373767404134 4.13559158660353e-19)
(0.0235985357091062 -0.000136766278283868 -2.08185136682609e-19)
(0.0216090610695383 -0.000152429224057416 -2.10568762764601e-19)
(0.0189695609952842 -0.000167084302230927 4.25392623532862e-19)
(0.0156504389515179 -0.000189975001677484 0)
(0.0109035356192405 -0.0002024144834883 -2.67952361291214e-23)
(0.00458989285752786 2.13501821685937e-05 0)
(0.00317190459313671 0.000394301446858391 2.26088823859514e-19)
(0.0047685810395361 0.00129660432191297 -5.73606094273558e-17)
(0.00633149455352663 0.0023609518115162 -5.92296679279765e-22)
(0.00884685236068067 0.00401737340154529 -1.06531073609168e-16)
(0.0118178250821133 0.00621545820136101 -1.02766276603734e-16)
(0.0154620928053912 0.00913908817005624 9.77742395396893e-17)
(0.0201968849022812 0.0130019873380661 -9.28295183457742e-17)
(0.025732878168431 0.0175894655859748 8.81991795380809e-17)
(0.031845169470573 0.0226626776941727 8.39355649189289e-17)
(0.0384132689710982 0.0280330750914167 0)
(0.0454584421230466 0.0335468585448292 0)
(0.0519817847926634 0.0384979961877105 -7.35217640854949e-17)
(0.0575486886960127 0.0428907685160353 -7.0550435748395e-17)
(0.0628884692356506 0.0473559368965958 -6.74902959085479e-17)
(0.0684161074029566 0.0522294487618174 -6.42752246401806e-17)
(0.0745878554256 0.0578753535575339 -6.08661884407086e-17)
(0.0825281998449979 0.0651220119283317 5.70769709357213e-17)
(0.0952105294908529 0.0755159062178044 5.29492755247401e-17)
(0.113930477533759 0.0882476441515026 -4.8978743682588e-17)
(0.138050857358183 0.1013527872654 4.50783466062651e-17)
(0.172258217823906 0.11484516988515 4.11475283272021e-17)
(0.219394853731928 0.124441937384603 -3.70373816516236e-17)
(0.275335037938628 0.117526951412588 0)
(0.271763866611518 0.0704303676945531 1.5074193112136e-17)
(0.199062992590998 0.0231122234126593 0)
(0.11857206562053 0.00228025960950066 -2.11833461077296e-18)
(0.0915138382927875 -0.000560073900023255 0)
(0.337131373019157 -0.00136202151674145 0)
(0.364392593446607 -0.00870683554859756 -7.38975973794866e-22)
(0.306687418431266 -0.0323139779785737 -4.77535972307846e-21)
(0.121560398390747 -0.0277789598392728 1.64672984996113e-14)
(-0.0581121993839541 0.030564265682343 1.8622494166022e-14)
(-0.0895568901598032 0.055818592930073 -5.95103502762818e-17)
(-0.0646424600735721 0.0467852987456281 1.81467052834212e-23)
(-0.052046164204004 0.0413937825990018 -6.226503838646e-17)
(-0.0437852783198278 0.0367588884543814 1.84785631209224e-14)
(-0.0410753730405111 0.0349612447413184 1.92591740102919e-14)
(-0.0394254806865836 0.0330270716587397 -3.53964791212205e-20)
(-0.0396200824058086 0.0324268933779133 3.71803228662296e-20)
(-0.0405028379335608 0.0324994952833898 -3.85818814831151e-20)
(-0.0425746799110962 0.0336617181250133 -8.15867606988209e-17)
(-0.0461508874424248 0.0361374287424263 1.66479576601643e-16)
(-0.0513224500263285 0.039966836913322 -8.199646440902e-20)
(-0.0574701211695577 0.0444360247791883 8.44111872699328e-17)
(-0.0641741719309586 0.0485835636685631 -8.45782913427074e-17)
(-0.0713119891475667 0.0519235425403404 1.64005534283748e-19)
(-0.0784479161950363 0.0537655076999204 -1.63371117399973e-19)
(-0.0851228294362825 0.0534527934107398 -8.27451027669891e-17)
(-0.0915188927509854 0.0509125950243936 8.19368783576698e-17)
(-0.0978633664813736 0.0466657303690408 8.07248834119231e-17)
(-0.103658475954476 0.0407976487879698 -1.54184196652582e-19)
(-0.108561950016735 0.0333581387940396 3.87029905179838e-17)
(-0.112705056180495 0.024638017826151 -3.79784992228693e-17)
(-0.117053289435651 0.0150264147707794 5.39543845850654e-15)
(-0.128743019567795 0.00613665504730827 5.00584766840791e-15)
(-0.147824495855483 0.00198348429547333 -3.02068279218233e-23)
(-0.160887721075687 0.00125202858252276 -4.26566115268965e-31)
(-0.166831791208886 0.000700162455753948 0)
(-0.169401617505456 0.000365516817146456 4.82574390708968e-15)
(-0.169444153883274 0.000130616887587026 4.67783211869661e-15)
(-0.167715171992848 -4.95345518983056e-05 2.14413928252466e-19)
(-0.164585185082531 -0.000191950826716301 -1.05746540398944e-19)
(-0.160355257094576 -0.000307811240284335 -1.05702224605945e-19)
(-0.155223748546363 -0.00040352523849546 1.04808569809181e-19)
(-0.149358385514667 -0.000482855438678059 7.6546880782672e-31)
(-0.142894808272357 -0.000548187215228859 -4.42076954175951e-15)
(-0.1359508605605 -0.00060121988648592 -4.39961918447233e-15)
(-0.128628588035641 -0.000643371413197674 0)
(-0.121017643682511 -0.000675828922805746 5.42290759975995e-20)
(-0.113196751105046 -0.000699700998533872 2.99246731606933e-22)
(-0.105234859996736 -0.000715990602949388 -5.52731690286996e-20)
(-0.0971921664186616 -0.000725645549241381 -5.63558415569825e-20)
(-0.0891208458908967 -0.000729534841905473 1.14150954019953e-19)
(-0.0810658699750454 -0.000728464483605499 5.03834048011712e-15)
(-0.0730656671471869 -0.000723165364562134 5.09033848673932e-15)
(-0.0651528380035409 -0.000714299103279646 5.9911941695492e-20)
(-0.0573547753791857 -0.000702455744344216 0)
(-0.0496942875700219 -0.000688157532968517 -3.12092109796955e-20)
(-0.0421901680231822 -0.000671860683257792 3.16837424394124e-20)
(-0.034857720607314 -0.000653962043657397 5.40118075109133e-15)
(-0.027709255526269 -0.000634799545401241 5.48821828059672e-15)
(-0.0207545396684301 -0.000614660091063993 -1.68604276983239e-20)
(-0.014001203177721 -0.000593785439411522 -5.53954340112599e-23)
(-0.00745506383669742 -0.000572530641131241 -5.41402199261052e-23)
(-0.00112030120672796 -0.000551074139581437 1.7785284741562e-20)
(0.00500041485408602 -0.000529221075459781 -4.48405580272471e-21)
(0.0109058103081676 -0.000507140380053261 4.46365588632638e-21)
(0.0165953457023215 -0.000484970142973197 -4.46979577042609e-21)
(0.0220688283738265 -0.000462734861245159 4.45452417357312e-21)
(0.0273264654963283 -0.000440635039440231 1.78547259807113e-20)
(0.0323686267129792 -0.000418704693449687 -1.7812002490013e-20)
(0.0371958012759176 -0.000396945648881033 0)
(0.0418084003142611 -0.000375351755760723 0)
(0.0462066589949971 -0.000353902475810495 0)
(0.0503904971357491 -0.000332564532221417 0)
(0.0543594022499934 -0.000311291805509853 0)
(0.058112282206072 -0.000290023990863341 0)
(0.0616473402371802 -0.000268687871265696 0)
(0.0649618839154575 -0.000247192108078763 7.24102609762741e-20)
(0.0680521921793869 -0.000225431379913716 -6.02706935350256e-15)
(0.0709132202351815 -0.000203273032770264 -1.21425869634312e-14)
(0.0735384782381379 -0.000180570091924456 -6.12178054775495e-15)
(0.075919500292457 -0.000157127615108642 -1.47231549736682e-19)
(0.0780458256432056 -0.000132742217861481 -1.27631359460849e-22)
(0.0799039138744918 -0.000107115395157315 7.44551735033876e-20)
(0.0814775450103135 -7.99697477494539e-05 7.51214460662784e-20)
(0.082745358262747 -5.08282225992688e-05 -6.26978736870504e-15)
(0.0836828401545667 -1.93402839415254e-05 -6.39222414844462e-15)
(0.0842555289644973 1.51439367784736e-05 7.70684338676212e-20)
(0.084428363096208 5.27297787592272e-05 0)
(0.084153257323608 9.53249990303348e-05 1.5779893837528e-19)
(0.0833730337190524 0.000143665416271244 -1.59501629004858e-19)
(0.0819871896472266 0.000201757958597314 -1.62117048476558e-19)
(0.0799049272042676 0.000269267673527406 1.64544460190729e-19)
(0.0769336241497284 0.00035517838991718 0)
(0.0729292188323487 0.000456982485226805 0)
(0.0674727109448653 0.000598919685822786 1.77277858429287e-19)
(0.0603192097808541 0.000787449647164567 -4.47436055599414e-22)
(0.0500266921591324 0.00108472280900535 1.93171562526859e-19)
(0.0363749898500439 0.00217501238996444 0)
(0.0313455189947377 0.00389021325413468 -1.79891966803769e-22)
(0.0330657809723288 0.00695054299633336 0)
(0.036144281051687 0.0105756562473616 4.99978189352668e-17)
(0.0410275963856176 0.0154326367287229 -9.59381664951436e-17)
(0.0471304077371461 0.021517104701164 -1.7958681946878e-19)
(0.0546779582038306 0.0291918527542507 1.70979995990303e-19)
(0.0643949017010633 0.0388614866637311 1.62792626979934e-19)
(0.0759388217922648 0.0501707277141748 -7.95641532837726e-17)
(0.0889905249396039 0.0626426823235734 -1.55877624813556e-19)
(0.103309019554536 0.0758867669199438 -7.2503676480373e-17)
(0.118928853540735 0.0895666210804588 0)
(0.134358294474776 0.102457428353124 0)
(0.148540228893157 0.11447365618539 6.60148544962604e-17)
(0.162138225397719 0.126739846219276 6.42323510555113e-17)
(0.175922098207216 0.140030868909084 6.23402962413759e-17)
(0.190785359112883 0.155163877274102 3.38033027482025e-20)
(0.208680890851786 0.173793081510483 -5.72123912206982e-17)
(0.234860462659338 0.198854400186345 -1.06755457164185e-16)
(0.273184799252734 0.228743236870058 0)
(0.323905333253724 0.258936237057723 0)
(0.393757507977289 0.287340184818734 -3.9172278539817e-17)
(0.487371379647274 0.303842921708083 -3.35582045835335e-17)
(0.602301505267747 0.28542162856209 2.91161375108203e-17)
(0.649170848077899 0.190573001088663 -1.30396685875097e-17)
(0.572505101734457 0.0803860557301952 0)
(0.426335748546267 0.0162040015995115 0)
(0.340127647904586 0.000115111149962676 0)
(0.51592331839111 -0.00117650233276715 0)
(0.529383277279163 -0.0118698991475036 1.46359183356765e-18)
(0.479242655671313 -0.0456475144566349 0)
(0.267330389697338 -0.0549504130239831 -1.05936963227806e-14)
(-0.0187918096556745 0.0207504142787902 -1.42501407909786e-14)
(-0.115328955898936 0.072727716523614 5.45373079713688e-17)
(-0.0925494789355717 0.0659419857316716 0)
(-0.0768899481333159 0.060381241781158 6.95754164640851e-21)
(-0.0663731586775854 0.055286084349647 -6.07112176213484e-17)
(-0.0630274482364496 0.0533884771660818 6.4123997605437e-17)
(-0.061380792560908 0.0512835794185755 9.01214058673508e-23)
(-0.0622371434297333 0.050897167126408 -3.37950078940586e-20)
(-0.06419927203911 0.0515608178458232 0)
(-0.0678823735445157 0.0538362968741555 7.1442206915996e-17)
(-0.073594076750201 0.0579215478436466 -1.46603399276131e-21)
(-0.0811810088008537 0.0636213432338125 -6.74761655430934e-20)
(-0.0896919910725455 0.0698009642037597 6.49867217804043e-20)
(-0.0985239281476163 0.0750457457359564 0)
(-0.107366072398935 0.0785953952455822 0)
(-0.115688963267667 0.0796341324677026 0)
(-0.123158624166299 0.0776076644270999 0)
(-0.130122072582416 0.0726290055706825 -5.13544176333941e-17)
(-0.136769080833414 0.0654457456398597 -4.83291755834449e-17)
(-0.142714994570228 0.0563775346296149 8.9717655976503e-20)
(-0.147904153138669 0.0456681233681137 -8.95125804580981e-20)
(-0.15283360013062 0.0337780463278815 4.1773620320463e-17)
(-0.158915344282682 0.0211515630314312 1.98111703692368e-17)
(-0.17126286756441 0.00931260442169726 7.16048860002094e-20)
(-0.186844828202175 0.00350867386057428 1.59289746237083e-23)
(-0.195756516102543 0.00202385216639234 0)
(-0.19888029779475 0.000974751986223927 0)
(-0.199065864839251 0.000337824709951101 0)
(-0.19696395604008 -0.00011577949508648 0)
(-0.193259224902314 -0.000459497022913279 0)
(-0.188262706097215 -0.000730847565981348 0)
(-0.1822383475251 -0.000950524864245116 0)
(-0.175370305767291 -0.00113082463054441 0)
(-0.167817199359809 -0.00127885927327943 0)
(-0.159708725992083 -0.00139954040575368 2.51013910299742e-20)
(-0.151158250158011 -0.00149634505985764 -2.49129955933171e-20)
(-0.142264311436758 -0.00157217918005749 2.50781921300789e-20)
(-0.133113698921828 -0.00162945990170052 -2.50080071704103e-20)
(-0.12378273745724 -0.00167039364732971 0)
(-0.114338375289716 -0.00169695639301457 0)
(-0.104839127217443 -0.00171097999016016 2.56221500308792e-20)
(-0.0953357804861011 -0.00171413006474017 1.27207852361947e-22)
(-0.0858721671739487 -0.00170793316669734 -2.59896123427539e-20)
(-0.076485801193455 -0.00169376606804854 0)
(-0.0672085615792943 -0.00167286697335452 0)
(-0.0580672897504663 -0.00164633661260283 0)
(-0.0490843883181057 -0.00161514589578867 0)
(-0.040278370634716 -0.0015801418834913 0)
(-0.0316643694625879 -0.00154205928917014 1.40951933843655e-20)
(-0.0232546181264426 -0.00150152372851327 -1.42526226642266e-20)
(-0.0150588860166291 -0.00145906542738438 -7.25938471529947e-21)
(-0.00708488522878926 -0.00141515223186737 -2.37492327057265e-23)
(0.000661470454932798 -0.00137013140821543 -2.30296538555928e-23)
(0.00817611767545311 -0.00132418645204086 7.48598214026277e-21)
(0.0154565700752109 -0.00127746129064626 0)
(0.0225013127311031 -0.00123040068078184 0)
(0.0293094648524692 -0.00118336198504379 0)
(0.0358806543090621 -0.00113641919584238 0)
(0.0422148245661562 -0.00108965269637718 7.69234120658868e-21)
(0.0483120646614522 -0.00104308104005564 1.81131830022318e-23)
(0.0541725427099753 -0.000996699111269306 -7.76552752277886e-21)
(0.0597963127206219 -0.000950479453533653 0)
(0.0651832048518608 -0.000904366325962275 -1.57664299482855e-20)
(0.0703326809630254 -0.000858277255072115 1.58410424095454e-20)
(0.0752437078693921 -0.000812102162437664 -1.59859064058008e-20)
(0.0799146021913923 -0.000765700792397335 -3.13367876936229e-23)
(0.0843428905700718 -0.000718902505211615 -1.62572745082607e-20)
(0.0885251096250744 -0.000671498169911972 3.26503609364012e-20)
(0.092456648089499 -0.000623241826195808 0)
(0.0961314451618251 -0.00057383147566595 0)
(0.0995418224067881 -0.000522918657420993 3.35700507978821e-20)
(0.102677960638312 -0.000470062853852888 5.896625878036e-23)
(0.105527781992021 -0.000414767855139616 -3.4171636370761e-20)
(0.108075924300264 -0.000356369440609546 -3.45949080915071e-20)
(0.110303905866793 -0.000294154148045199 3.49268663884502e-20)
(0.112187892350137 -0.000227083788149974 -3.54105891697912e-20)
(0.113699966870047 -0.000154134090964244 -6.15819292395234e-23)
(0.114802887674791 -7.37364950444738e-05 3.63185452172985e-20)
(0.115455234156716 1.50451209845765e-05 7.3860329718478e-20)
(0.115599144535508 0.000115666041761576 1.33967107100468e-22)
(0.115169479359863 0.000230968748240011 -7.5992863033651e-20)
(0.114060656042413 0.000368360909711258 0)
(0.112166716667682 0.00053099612361419 -7.90163480775094e-20)
(0.109286948386733 0.000734733146461218 8.06627758636991e-20)
(0.105245510489522 0.000984804382649039 8.30069880257235e-20)
(0.0996103928892586 0.00132214451057135 -8.54775003251689e-20)
(0.0920760642075564 0.00178778328382999 0)
(0.0813200183424933 0.00247949373319802 0)
(0.0667048217486882 0.00445658188905371 3.20334315920949e-18)
(0.0594734946225707 0.00766334111300734 2.59641494810726e-17)
(0.0596411669536063 0.0124466052766011 9.80249298018216e-20)
(0.0622904725386199 0.0179556438037379 -2.39778076475663e-17)
(0.0672774270392865 0.0248388508297788 7.57371346255833e-22)
(0.0740028726812937 0.0331215531601973 0)
(0.0826174998420994 0.0432030403162857 0)
(0.0938122583972316 0.0554263363007734 7.96844404588834e-20)
(0.107397671035492 0.069490929094919 -7.66453007694728e-20)
(0.123065893892011 0.0849207335227219 6.69584874583824e-20)
(0.14056668224807 0.101332485241019 3.674832432902e-17)
(0.159896288090118 0.11834754895328 -3.58302217666628e-17)
(0.179738586649023 0.134977962730475 0)
(0.198878170826995 0.151221102103929 -3.39408258241605e-20)
(0.217763720080837 0.168174372493786 3.37870288935819e-20)
(0.237179262435674 0.186667315747626 0)
(0.25810639954369 0.207604932704064 3.36024381406164e-17)
(0.282535031433822 0.232557988448522 0)
(0.315809453225835 0.263851235788595 3.08148542308798e-17)
(0.362878948495137 0.299353595727742 -3.42510790169776e-21)
(0.424353409280894 0.33370231299793 3.2335709053959e-21)
(0.505846723402044 0.362290290899375 2.2789597618078e-17)
(0.61086183440751 0.372480299462055 1.92692324124079e-17)
(0.737766330527307 0.341243198787214 -3.31312435939689e-17)
(0.81588632185213 0.235673069974152 7.73733109811064e-18)
(0.78076790771488 0.111611865069875 0)
(0.653554127471811 0.0295065152518532 1.15101676785261e-18)
(0.547526245969046 0.00351571001298441 -6.50352577814746e-22)
(0.622139285894565 -0.000175194957027831 4.38413286348629e-22)
(0.622836095125936 -0.0134132224103505 -4.3800349380678e-22)
(0.584167202385133 -0.051923057190664 3.69924756432452e-18)
(0.393579928297054 -0.0751797748374083 0)
(0.0620740051366794 -0.0032136406782705 -2.93125871414407e-17)
(-0.111095641666192 0.0736670102986056 -4.25370567067931e-17)
(-0.106319706116418 0.0747240227995376 0)
(-0.0921248124751883 0.071352748555288 0)
(-0.0817583782096124 0.0675360076111991 4.86335063610187e-17)
(-0.0787323354478281 0.0663857175471029 -5.1537845104515e-17)
(-0.0777039153771066 0.0647865604696485 5.32837393386015e-17)
(-0.0793525857953938 0.0648953305275839 -2.64996793447987e-20)
(-0.082260161234065 0.0661899037024388 0)
(-0.0869708558975677 0.0692482868811202 -5.36330653115637e-17)
(-0.0936138153901396 0.074096938389605 -5.15351272501603e-17)
(-0.101766102535575 0.0802736722215249 4.74379506472918e-20)
(-0.110358378694458 0.0864462347378298 -4.52509811912688e-17)
(-0.11885254628572 0.0911024587907685 -4.16162261681606e-17)
(-0.12699425028855 0.0935195737644107 3.82955085070266e-17)
(-0.134445770915855 0.0930657018825398 -3.51034010180981e-17)
(-0.141107625406976 0.0894178723851739 0)
(-0.147419277618496 0.0827844671993432 2.99252407933867e-17)
(-0.153511988384286 0.0739452223283768 5.44896628128109e-20)
(-0.159083974237517 0.0633024996117576 -2.62135822564525e-17)
(-0.164189901065693 0.0511545714437539 -1.23674675243953e-17)
(-0.169331136156472 0.0379844993742848 -1.19184697135951e-17)
(-0.175612207064641 0.0242207095804147 -5.56968876374919e-18)
(-0.186666353472497 0.0112287283608112 1.2940657335595e-18)
(-0.198857563568051 0.00460066665165297 -8.96317954807284e-24)
(-0.205154643148351 0.00250360269808301 -3.41548087140652e-20)
(-0.206821907761005 0.00105760431321587 -3.23228149208204e-20)
(-0.205889839557762 0.000165775793444659 0)
(-0.202883451606611 -0.000477535662557002 0)
(-0.198379059606247 -0.000964982389456393 -2.92101950648023e-20)
(-0.192656334608044 -0.00135198501032992 2.8362877672937e-20)
(-0.185957087474049 -0.00166540759086745 -2.80128257738803e-20)
(-0.178453691911079 -0.00192228035655583 2.74591802940456e-20)
(-0.170295925524221 -0.00213244273808683 0)
(-0.161607765316295 -0.00230299002475559 0)
(-0.152498202443574 -0.00243895314359265 0)
(-0.143062470830707 -0.00254456540479989 0)
(-0.133384722113887 -0.00262335863933183 1.34843836150057e-20)
(-0.123539162061464 -0.00267854167801133 -1.34352180293061e-20)
(-0.113591021704717 -0.00271298865503436 -1.35550187991977e-20)
(-0.103597418712697 -0.00272935024233877 2.71715481466748e-20)
(-0.0936080130366136 -0.00273003463988726 -1.36358601578301e-20)
(-0.0836657301442556 -0.00271724146008335 0)
(-0.0738073665293908 -0.00269295305348169 0)
(-0.0640642401603533 -0.00265894908719691 0)
(-0.0544627649962406 -0.00261681095764347 0)
(-0.0450250270848999 -0.00256793239984677 -7.16045442460457e-21)
(-0.0357693160759503 -0.00251352942915554 -1.62490735047713e-15)
(-0.0267106201165549 -0.00245465578806157 -1.65081833343002e-15)
(-0.0178610934863874 -0.00239220936585951 -7.38121466340519e-21)
(-0.00923048050557351 -0.0023269508212942 -7.49743383522235e-21)
(-0.000826506782671575 -0.0022595310495139 7.55638122402627e-21)
(0.00734503707364137 -0.00219044791655865 0)
(0.0152802678083854 -0.00212017959556526 0)
(0.0229766356700634 -0.00204923487935475 0)
(0.0304324729426661 -0.00197800231201131 0)
(0.0376467532996587 -0.00190667896065375 0)
(0.0446189912690063 -0.00183538148870942 0)
(0.0513490103524029 -0.00176421505663217 0)
(0.0578367829580865 -0.00169321310440033 0)
(0.0640823485335443 -0.00162236947066748 0)
(0.0700856286706449 -0.00155164064136605 0)
(0.0758463123705863 -0.00148094102631053 -8.22312525380254e-21)
(0.0813637124852178 -0.00141014413903559 1.87173506216025e-15)
(0.0866366369796668 -0.00133908108526384 1.87988772963992e-15)
(0.0916632348717488 -0.00126753699472111 -8.42539244222501e-21)
(0.0964408531141679 -0.00119524908773986 1.70397709054316e-20)
(0.10096584021653 -0.00112189645751979 -1.71696531745447e-20)
(0.105233381122805 -0.00104709835221415 1.73698513644286e-20)
(0.109237206897007 -0.000970391180567827 -1.75136314761635e-20)
(0.112969408869745 -0.000891231946576487 0)
(0.1164199478941 -0.000808946223072189 1.7919909222545e-20)
(0.119576489482293 -0.000722753492602327 -1.80904917304127e-20)
(0.122423467835953 -0.000631644080092551 0)
(0.124942119470558 -0.000534478047532027 0)
(0.127108501926425 -0.000429692281745512 0)
(0.128894326184717 -0.000315611923821875 0)
(0.130262615861537 -0.00018987575922444 0)
(0.131169895360791 -5.05295703087133e-05 0)
(0.131557580155927 0.000107350647298449 0)
(0.131359894832377 0.000288593457900763 -4.05933392364754e-20)
(0.130475231422998 0.000503326946947222 8.25693197356172e-20)
(0.128797505947706 0.000758525987609061 -8.42250076801563e-20)
(0.126136740687199 0.0010754387307874 4.30290290696818e-20)
(0.122317299430942 0.00146786685236895 0)
(0.116942593341691 0.00198870742390355 0)
(0.109716228957473 0.00270912147512559 0)
(0.0995824686723894 0.00375884227999366 -5.01276702702444e-20)
(0.0857458575408466 0.00630558838241426 -3.33476702696574e-18)
(0.0777541513568657 0.0103647109768216 -6.77689429290408e-18)
(0.0768090632525997 0.0160377223479307 1.30975526996105e-17)
(0.0788289352967805 0.0225252283746534 4.89333269212377e-20)
(0.0834898962624418 0.0304209285730722 4.78628685810584e-17)
(0.0901641004808249 0.0397447080893512 -4.49995360309776e-20)
(0.0989469016378725 0.0508805571197475 4.31516163241695e-20)
(0.110435732459328 0.0640897274240715 2.12682411320541e-17)
(0.124523352825531 0.0791160422672246 -2.04704867361239e-17)
(0.140924362937379 0.0955201779289865 -1.98614442454412e-17)
(0.159401434563545 0.112951339396712 -3.75975899997196e-20)
(0.179905732897022 0.131033560587177 4.45403797057285e-20)
(0.201290722378073 0.149006171801781 -1.8146944744515e-20)
(0.222387881486201 0.16696688989325 3.61674687855652e-20)
(0.243550543697657 0.185947502997342 -1.84695379948586e-17)
(0.265518684492242 0.206745078176412 1.78689963815994e-20)
(0.289280135118868 0.230253866180173 -1.82233233482154e-17)
(0.316751983830371 0.257839886487905 -8.61384459237814e-21)
(0.352886762296462 0.291093935245813 8.33630048894288e-21)
(0.402776320301543 0.327492461666029 1.8916975627994e-21)
(0.467161095521144 0.361490880966261 -1.79341109141316e-21)
(0.550733630908727 0.387331287740725 0)
(0.65602766681748 0.391780160759459 0)
(0.781174300953283 0.353476003523723 -1.71138483746036e-20)
(0.867475488898921 0.246465319997244 -4.42897914690734e-18)
(0.859122926424218 0.123159503937247 0)
(0.765507690516772 0.0373390217816709 -7.01804772359817e-19)
(0.666417672140502 0.00711105098169593 0)
(0.685286681819157 0.00126686346031304 0)
(0.678468705763215 -0.0138423019929486 5.97637599827382e-19)
(0.64605519051413 -0.0536813765286893 5.47911810822219e-21)
(0.487190201912477 -0.0861988251712063 1.62470781885681e-21)
(0.154263826921526 -0.028863179935962 1.99532179162042e-17)
(-0.0818757233190584 0.0628678117298591 2.93011682791098e-17)
(-0.107237219936215 0.0752708880889035 0)
(-0.0980148686768561 0.0750441526993255 0)
(-0.089131050348789 0.0731355923867113 3.35208506751836e-17)
(-0.0869662387002537 0.0731377940584492 3.56026143669726e-17)
(-0.0867958922094997 0.0723606458493922 -3.66731361002631e-17)
(-0.089145070939302 0.0730428790101867 0)
(-0.0926754420002896 0.0748326386056228 -3.70340194522208e-17)
(-0.0978062616494128 0.0782836914644117 8.51038823415587e-22)
(-0.104531080783812 0.0832813827143151 -3.42221567351635e-17)
(-0.112356500587913 0.0892582485869335 3.17765153041202e-17)
(-0.120331872637608 0.0949226706680621 5.27103725704713e-22)
(-0.128096802890636 0.0988547775991474 2.65252772881016e-17)
(-0.135492933948763 0.100417292308336 -2.4140197077877e-17)
(-0.142316901861497 0.0991014157419188 4.61341988769985e-20)
(-0.148547293472297 0.0946741595927879 -3.95739833985382e-20)
(-0.154581854081583 0.0873220700418382 0)
(-0.160481528391446 0.0777806574988251 1.75892603056806e-17)
(-0.165981951347234 0.0664787003061721 1.6589233858737e-17)
(-0.171151294615389 0.0537399151819098 0)
(-0.176408722115518 0.0400547564396345 -7.54905734215725e-18)
(-0.182537266854075 0.0258876658469846 2.80758746651096e-20)
(-0.192258727874122 0.0125282633798128 -8.57556936590774e-19)
(-0.202155647725628 0.0054615341636407 2.88236455002207e-24)
(-0.20695110174766 0.0028449616846528 -2.19313325258952e-20)