/*--------------------------------*- C++ -*----------------------------------*\
  =========                 |
  \\      /  F ield         | OpenFOAM: The Open Source CFD Toolbox
   \\    /   O peration     | Website:  https://openfoam.org
    \\  /    A nd           | Version:  7
     \\/     M anipulation  |
\*---------------------------------------------------------------------------*/
FoamFile
{
    version     2.0;
    format      ascii;
    class       volVectorField;
    location    "4000";
    object      wallShearStress;
}
// * * * * * * * * * * * * * * * * * * * * * * * * * * * * * * * * * * * * * //

dimensions      [0 2 -2 0 0 0 0];

internalField   uniform (0 0 0);

boundaryField
{
    bottomWall
    {
        type            calculated;
        value           nonuniform List<vector> 
120
(
(-0.00522901463772203 3.65258875404683e-05 5.61673140473537e-23)
(-0.00619272315088107 0.000170811307490232 1.15469909193606e-19)
(-0.00457936213767177 0.000558883279450443 5.64237288394698e-37)
(-0.00069584731401599 0.000322236622144462 9.96262414271049e-19)
(0.0020098164144469 -0.00073826819105409 1.22622709889904e-22)
(0.00206812890578814 -0.00111225127109692 4.67134425306784e-22)
(0.00138602884818976 -0.000898537667823952 2.21405038872204e-18)
(0.00106817394477383 -0.00076977213169077 -2.2432647195218e-18)
(0.000842609969274934 -0.000651695638547484 6.35401264641462e-16)
(0.000744003085267185 -0.000588490606054451 6.37094708357464e-16)
(0.000660434544017336 -0.000521582924425554 -5.57539360921072e-22)
(0.000619282338707173 -0.000482795563604212 1.11012372028842e-21)
(0.000592245965262039 -0.00045767732501281 -1.11217531933576e-21)
(0.000586203803565957 -0.000450597393616657 2.27171493169825e-18)
(0.000604155949450483 -0.00046272388306646 2.26876476395217e-18)
(0.000648228768840598 -0.000493676821038778 2.20573667011813e-21)
(0.000705996444953571 -0.000531946778719324 2.24087241034395e-18)
(0.000765791850820716 -0.00056284511557967 -4.45993195392717e-18)
(0.000825672998737826 -0.00058157952027505 2.20996813081492e-18)
(0.000878640885227387 -0.00058145487965694 2.20452643792551e-18)
(0.000915098259344306 -0.000556458105661103 -2.18535277345278e-18)
(0.000938618077973128 -0.000509330204831236 2.16400143118922e-18)
(0.000961440703928845 -0.000451165965436907 8.96233931066229e-24)
(0.000980952431504958 -0.000384358677063049 -2.11455803396929e-18)
(0.000994351029946971 -0.000308994106664563 3.00926553810506e-36)
(0.00100308912474869 -0.000226312343356705 9.62964972193618e-35)
(0.00098515705878511 -0.0001358579635277 1.50015117281346e-16)
(0.00107620477884764 -5.70110279410275e-05 1.49848195086766e-16)
(0.0013578469360157 -2.36588891652668e-05 -4.6655681976602e-25)
(0.00159450976277044 -2.11483562088657e-05 -1.35983742137339e-32)
(0.00172419505030368 -1.82221609774673e-05 -0)
(0.00180498884601266 -1.64491941537482e-05 1.57517844804394e-16)
(0.00184843321497187 -1.51033193599804e-05 1.59257642793807e-16)
(0.00186562147323071 -1.38688526228557e-05 0)
(0.00186122480029327 -1.26981716990223e-05 -1.8521708091697e-53)
(0.00183972002487669 -1.15808039272183e-05 -1.2036984677135e-51)
(0.00180392918214068 -1.04982108307294e-05 -0)
(0.00175622893444974 -9.44638785709925e-06 1.86422930105776e-21)
(0.00169856223655474 -8.43184797339125e-06 -1.55252621249846e-16)
(0.00163265893869921 -7.46259473338653e-06 -1.58331168265657e-16)
(0.00156005198454217 -6.54523263030829e-06 1.90469055645403e-21)
(0.00148211745409604 -5.68517056185901e-06 1.9364366352717e-21)
(0.00140008740670249 -4.8855172461271e-06 -1.94783373465693e-21)
(0.00131505724886561 -4.14781021904305e-06 1.98177222869882e-21)
(0.00122799520183395 -3.47183150455752e-06 -1.99573546217075e-21)
(0.00113974756401126 -2.85619884396752e-06 -0)
(0.00105104797775468 -2.29848301651645e-06 1.77054417669407e-16)
(0.000962524903807588 -1.79560799939133e-06 1.80476994537545e-16)
(0.00087471142991211 -1.34402294467012e-06 2.10464097725311e-21)
(0.000788054130946635 -9.39936137820306e-07 -1.0635192671541e-21)
(0.000702922644773472 -5.79451718348916e-07 1.08142213903292e-21)
(0.000619618757051063 -2.5871075743115e-07 -2.18555566917832e-21)
(0.000538385009428731 2.60566826639608e-08 1.83971690496982e-16)
(0.000459412942779941 2.784234497913e-07 1.86851285897063e-16)
(0.000382850776213578 5.01763219286398e-07 5.6558139853255e-22)
(0.000308810321190563 6.99061006231457e-07 -3.08940365110839e-41)
(0.000237373187308008 8.73609878190101e-07 -3.37436177150993e-32)
(0.000168594609145091 1.03503279385067e-06 2.93507413831221e-22)
(0.000102505580827028 1.19837235291672e-06 -4.44169387907942e-22)
(3.91173746088033e-05 1.3567710198848e-06 1.49486474520367e-22)
(-2.15704378840787e-05 1.49023480900446e-06 0)
(-7.95689411813833e-05 1.60000399184995e-06 -3.01030855176687e-22)
(-0.000134897079749755 1.69592147192154e-06 2.99808931370802e-22)
(-0.000187575264927284 1.78072176537948e-06 -3.48970733130073e-32)
(-0.000237626540691077 1.85591111550493e-06 -0)
(-0.000285073455636518 1.92293662192278e-06 5.98876683388691e-22)
(-0.000329936897592385 1.98308604641885e-06 -5.97124779054108e-22)
(-0.000372234119147507 2.03752268649603e-06 -0)
(-0.000411977296902598 2.08729743991553e-06 0)
(-0.000449171624341454 2.13335126753904e-06 0)
(-0.000483813922582001 2.17655364926469e-06 0)
(-0.000515890225822689 2.21766864126016e-06 0)
(-0.000545374580539375 2.25743996108689e-06 -1.99738706850613e-16)
(-0.000572225197969457 2.29647717906293e-06 -3.98542833108669e-16)
(-0.000596384023655876 2.33546329327163e-06 -1.987541104181e-16)
(-0.000617769373537966 2.37483306312363e-06 4.79529528846473e-21)
(-0.000636278330776135 2.4153150767045e-06 -2.39933184897501e-21)
(-0.000651770664945719 2.45705482394072e-06 2.40798698447755e-21)
(-0.000664080571330747 2.50107147565329e-06 -2.40924112151513e-21)
(-0.000672978020819408 2.54697196857192e-06 -2.02358684295659e-16)
(-0.000678212884004129 2.59705476876409e-06 -2.00978162308666e-16)
(-0.000679417901412911 2.65040787382392e-06 2.43129206703054e-21)
(-0.000676258739650194 2.71158722515984e-06 -2.44447921805154e-21)
(-0.000668164630770519 2.77343071706323e-06 4.90534897135573e-21)
(-0.00065460449047382 2.84495132436621e-06 -2.46241105568438e-21)
(-0.000634417174756153 2.90267085999998e-06 4.96199697461019e-21)
(-0.000606802121956731 2.97716837452345e-06 -9.98054270222888e-21)
(-0.000569492050917286 3.01161408575527e-06 5.02419282924451e-21)
(-0.000521477754074349 3.08588508930108e-06 5.08172191289976e-21)
(-0.000457773931350931 3.03497548435122e-06 -1.02661359191567e-20)
(-0.00037767422705532 2.94345514839865e-06 2.84864604566864e-26)
(-0.000263261565685104 2.1691901822394e-06 6.46650589136341e-25)
(-0.000111042063236428 -2.37143552716315e-06 7.3468396926393e-40)
(-7.74110409785736e-05 -9.34307015478658e-06 -5.46285608516799e-21)
(-0.000117437706485353 -3.24834546007174e-05 1.4054707248825e-18)
(-0.000159227269329471 -6.08079232444145e-05 1.47424202690453e-23)
(-0.000229391073695634 -0.000106000999126044 2.75938657681594e-18)
(-0.000318495442395931 -0.000169245489832414 2.76724399695127e-18)
(-0.000436047196603405 -0.000258204515113652 -2.75261234629392e-18)
(-0.000598189269514375 -0.000382553291480166 2.74035929903128e-18)
(-0.000799567912440208 -0.000539846100071713 -2.72757012332061e-18)
(-0.0010357685243548 -0.000725077284244387 -2.71368897090098e-18)
(-0.00130411388604832 -0.000933468995886912 -9.93057627574668e-35)
(-0.00160554106622264 -0.00116015034869116 3.00926553810506e-36)
(-0.00190387071490076 -0.00138100421164116 2.67260552322846e-18)
(-0.00218914986047603 -0.00159874653732571 2.66389317040527e-18)
(-0.00249384614056647 -0.001839344447124 2.65571471595981e-18)
(-0.00283950486262168 -0.00212082000771946 2.64552764906431e-18)
(-0.00325442117863832 -0.00246564161976152 2.63120166285445e-18)
(-0.00380505511835523 -0.00292089749088321 -2.60331543472062e-18)
(-0.00464602903970391 -0.00356490239817481 -2.55094505882117e-18)
(-0.00582558026311578 -0.00434475819560694 2.46891167445657e-18)
(-0.00729296913896384 -0.00513975771428124 -2.34799114852352e-18)
(-0.00924221828049361 -0.00589676523631047 -2.17939432099826e-18)
(-0.0116800448941847 -0.00632920887016764 1.95258347857355e-18)
(-0.0141588824751914 -0.00579713596073501 -2.10648587667354e-35)
(-0.0133620942388759 -0.00339219487013757 -7.42379647809645e-19)
(-0.00959956317267399 -0.00114405356947666 -3.76158192263132e-37)
(-0.0057069891351844 -0.000141752257526567 1.02181859028889e-19)
(-0.00441549641047933 3.20339018146635e-05 0)
)
;
    }
    topWall
    {
        type            calculated;
        value           nonuniform List<vector> 
120
(
(-0.00560525961342721 -1.6989576387175e-06 0)
(-0.00559851322955911 -1.61871914362171e-06 0)
(-0.00558771225070608 -1.55168698864922e-06 0)
(-0.00557325331322257 -1.49355355461963e-06 0)
(-0.00555542583014234 -1.44257615105815e-06 0)
(-0.00553453236340124 -1.39996576174096e-06 0)
(-0.00551090491062202 -1.36530393301795e-06 0)
(-0.00548486747734993 -1.33781298843145e-06 0)
(-0.0054567299926556 -1.31667923493524e-06 0)
(-0.00542678343233268 -1.30098987586994e-06 0)
(-0.00539529479152179 -1.28981273723087e-06 0)
(-0.00536250490825055 -1.2822517711069e-06 0)
(-0.00532862774571945 -1.27745928767668e-06 0)
(-0.00529385007679429 -1.27464724093961e-06 0)
(-0.00525833245929551 -1.27313310664557e-06 0)
(-0.00522221136843097 -1.27234130525381e-06 0)
(-0.00518560171368633 -1.27180688913707e-06 0)
(-0.00514859981600816 -1.27117681364448e-06 0)
(-0.00511128648284049 -1.27019786474578e-06 0)
(-0.00507373006762457 -1.26871130564926e-06 0)
(-0.00503598936857631 -1.26663619683589e-06 0)
(-0.00499811624803951 -1.26396015826169e-06 0)
(-0.00496015799514543 -1.26072353121359e-06 0)
(-0.00492215921800328 -1.25701004990141e-06 0)
(-0.00488416372699988 -1.25293545677924e-06 0)
(-0.0048462150180943 -1.24860251641161e-06 0)
(-0.0048083585635386 -1.24421588725541e-06 0)
(-0.00477064079423388 -1.23982853564005e-06 0)
(-0.00473311086184254 -1.23568501052227e-06 0)
(-0.00469581927356602 -1.23179075679068e-06 0)
(-0.00465881962005786 -1.22841460353839e-06 0)
(-0.00462216543907563 -1.22544002572654e-06 0)
(-0.00458591357684882 -1.22323448069638e-06 0)
(-0.00455011921734321 -1.22149641380926e-06 0)
(-0.00451484000473139 -1.22070452500489e-06 0)
(-0.00448013083877711 -1.22040288169698e-06 0)
(-0.00444604741079603 -1.22109633752779e-06 0)
(-0.00441264175821655 -1.22231254926018e-06 0)
(-0.00437996670214943 -1.22448423984989e-06 0)
(-0.00434806730386764 -1.22709887258073e-06 0)
(-0.00431699258635934 -1.23072443837202e-06 0)
(-0.00428678224634648 -1.23449397366009e-06 0)
(-0.0042574668186614 -1.23947894733487e-06 0)
(-0.0042291140565582 -1.24588635732348e-06 0)
(-0.00420176008978589 -1.25260259939479e-06 0)
(-0.00417542564364594 -1.25870857044521e-06 0)
(-0.00415012059679721 -1.26626905461205e-06 0)
(-0.00412590422771932 -1.27485852013547e-06 0)
(-0.00410279084656006 -1.28318293178816e-06 0)
(-0.00408078379330531 -1.29196908014102e-06 0)
(-0.00405990024828506 -1.3012986439307e-06 0)
(-0.00404015502860891 -1.3111350873572e-06 0)
(-0.00402156136432187 -1.32150996228825e-06 0)
(-0.0040041318128062 -1.33243868507999e-06 0)
(-0.00398787785066326 -1.34394050743245e-06 0)
(-0.00397281027809243 -1.35604489941634e-06 0)
(-0.00395893955301759 -1.36878591456176e-06 0)
(-0.00394627611476992 -1.38220591179221e-06 0)
(-0.00393483071593938 -1.39635210296521e-06 0)
(-0.00392461474108237 -1.41127891056551e-06 0)
(-0.00391564050980068 -1.4270451815037e-06 0)
(-0.0039079215604452 -1.44371582775728e-06 0)
(-0.00390147291539513 -1.46135944588326e-06 0)
(-0.00389631131170309 -1.48004962482553e-06 0)
(-0.00389245545198559 -1.499862286182e-06 0)
(-0.00388992605071486 -1.52088484907952e-06 0)
(-0.00388874684513928 -1.54325818245594e-06 0)
(-0.00388894527682588 -1.56693576622756e-06 0)
(-0.00389054184980148 -1.5925120400252e-06 0)
(-0.00389360241503824 -1.6203023609416e-06 0)
(-0.00389816321700246 -1.64961452959889e-06 0)
(-0.00390425540206061 -1.6804541104094e-06 0)
(-0.00391191085508694 -1.71293664004107e-06 0)
(-0.00392116552373441 -1.74717934429659e-06 0)
(-0.00393205846736333 -1.78325218022096e-06 0)
(-0.00394463082861756 -1.82121200432372e-06 0)
(-0.00395892554490327 -1.86110768414638e-06 0)
(-0.00397498704283385 -1.90297975350293e-06 0)
(-0.00399286086409681 -1.94685810659701e-06 0)
(-0.00401259325025726 -1.99275896522182e-06 0)
(-0.00403423053926112 -2.04067309478696e-06 0)
(-0.00405781815407695 -2.09055730838056e-06 0)
(-0.00408339946498751 -2.14233741743917e-06 0)
(-0.00411101468406339 -2.19590631797614e-06 0)
(-0.00414069963292087 -2.25111940916301e-06 0)
(-0.00417248439865978 -2.30779220013102e-06 0)
(-0.00420639187211153 -2.36569600796568e-06 0)
(-0.00424243616545635 -2.42455447683366e-06 0)
(-0.00428062086936711 -2.48403909536288e-06 0)
(-0.00432093723913833 -2.54376702002314e-06 0)
(-0.00436336216803804 -2.60329571297979e-06 0)
(-0.00440785623326026 -2.66212485029284e-06 0)
(-0.00445436137807793 -2.71968807979083e-06 0)
(-0.00450279909290202 -2.77536582494187e-06 0)
(-0.00455306768345839 -2.82846478921695e-06 0)
(-0.00460504125604787 -2.87826045451759e-06 0)
(-0.00465856589755353 -2.92393092397137e-06 0)
(-0.00471346111772629 -2.96469163246853e-06 0)
(-0.00476951282903144 -2.99957540518031e-06 0)
(-0.00482648117526663 -3.02785482202833e-06 0)
(-0.00488408561719212 -3.04833288892045e-06 0)
(-0.00494202499046443 -3.0606382600795e-06 0)
(-0.00499995460448414 -3.06306954330773e-06 0)
(-0.00505749988948118 -3.05621494732665e-06 0)
(-0.00511430011637917 -3.03905866274031e-06 0)
(-0.00516991471153422 -3.01080649604771e-06 0)
(-0.00522395574820734 -2.97207011229647e-06 0)
(-0.00527596668005076 -2.92094177092314e-06 0)
(-0.00532551181936023 -2.85968664640356e-06 0)
(-0.00537215566976288 -2.78700876998724e-06 0)
(-0.00541546152523312 -2.70454862549913e-06 0)
(-0.00545503898531014 -2.6135899637664e-06 0)
(-0.00549053847998407 -2.51552313731219e-06 0)
(-0.00552165820457924 -2.4119960038685e-06 0)
(-0.0055481564520852 -2.30492707737697e-06 0)
(-0.00556985605775912 -2.19616273506048e-06 0)
(-0.00558664783694519 -2.08788782135474e-06 0)
(-0.00559850825247114 -1.9817901065554e-06 0)
(-0.00560544293963911 -1.88002127323398e-06 0)
(-0.00560764483782892 -1.78699660813479e-06 0)
)
;
    }
    inlet_half0
    {
        type            cyclic;
    }
    inlet_half1
    {
        type            cyclic;
    }
    outlet_half0
    {
        type            cyclic;
    }
    outlet_half1
    {
        type            cyclic;
    }
    sideRight_half0
    {
        type            empty;
    }
    sideRight_half1
    {
        type            empty;
    }
    sideLeft_half0
    {
        type            empty;
    }
    sideLeft_half1
    {
        type            empty;
    }
}


// ************************************************************************* //
