5 	0.00391112967796274 	3.46944695195361e-18 	1.24094349529642 	0.000923182112118568 	443.151764772767 	0.00773102234334784
5 	0.0118766651674915 	6.93889390390723e-18 	1.24092744652225 	0.00584468720976309 	140.509046671988 	0.0209336473350521
5 	0.020134001548576 	0 	1.24088326609847 	0.0134495415187956 	43.8476871630251 	0.0222110773305529
5 	0.0286938283423949 	-6.93889390390723e-18 	1.24079650055122 	0.0197546587791339 	23.3667618431071 	0.0191447766414189
5 	0.0375672266585909 	1.73472347597681e-18 	1.24067340446235 	0.0245687418002471 	15.8532656589487 	0.0165072495836998
5 	0.0467656835403033 	1.04083408558608e-17 	1.24052687286164 	0.0284753664911106 	12.0601825837317 	0.0146557918715097
5 	0.0563011068347008 	1.04083408558608e-17 	1.24036319004025 	0.0318208567866466 	9.77566663048884 	0.0133146705246435
5 	0.0661858406082649 	3.46944695195361e-18 	1.24018483952004 	0.0347906262105288 	8.24756863763046 	0.0123004125450062
5 	0.0764326811267816 	5.20417042793042e-18 	1.23999360276701 	0.0374925551572604 	7.15318717059451 	0.0115068882501255
5 	0.0870548934207257 	1.21430643318376e-17 	1.23979105059532 	0.0399947058294362 	6.33121624853495 	0.0108703564664341
5 	0.0980662284574838 	1.21430643318376e-17 	1.23957853360036 	0.042342836362876 	5.69197948908128 	0.0103504524487152
5 	0.109480940942647 	1.04083408558608e-17 	1.23935725850916 	0.0445692558724615 	5.18157805321772 	0.00992036876971953
5 	0.121313807773416 	1.04083408558608e-17 	1.23912836157262 	0.0466976638477105 	4.76562726683413 	0.00956157727857792
5 	0.13358014716801 	1.04083408558608e-17 	1.23889294722737 	0.0487459699298613 	4.42113585051591 	0.00926084223460094
5 	0.146295838495839 	8.67361737988404e-18 	1.23865210839248 	0.0507280239654388 	4.13213527758203 	0.00900844583920355
5 	0.159477342834115 	8.67361737988404e-18 	1.23840693818177 	0.0526547220258707 	3.88718143438175 	0.00879708746527929
5 	0.173141724277517 	1.21430643318376e-17 	1.2381585357819 	0.0545347364193125 	3.67785404842743 	0.00862117427682716
5 	0.18730667202848 	1.21430643318376e-17 	1.23790800778745 	0.0563750088078901 	3.49781723937891 	0.0084763482680586
5 	0.201990523296728 	1.21430643318376e-17 	1.23765646595054 	0.0581810879077645 	3.34221021329743 	0.00835916096838408
5 	0.217212287037675 	1.56125112837913e-17 	1.23740502197668 	0.0599573612389885 	3.20723980594288 	0.00826684299718299
5 	0.232991668560441 	2.25514051876985e-17 	1.23715477976435 	0.0617072118515641 	3.08990057423831 	0.00819713592124696
5 	0.249349095037321 	3.12250225675825e-17 	1.23690682536026 	0.0634331198156841 	2.98777781537595 	0.0081481656973458
5 	0.266305741947753 	3.46944695195361e-17 	1.23666221483617 	0.0651367213601367 	2.89890584998494 	0.0081183440989194
5 	0.283883560490998 	2.60208521396521e-17 	1.23642196026161 	0.0668188341555004 	2.82166392679144 	0.00810628892491781
5 	0.30210530600303 	1.73472347597681e-17 	1.2361870139349 	0.068479454408187 	2.75469820829376 	0.00811075657785104
5 	0.320994567414413 	2.25514051876985e-17 	1.23595825103745 	0.0701177296106525 	2.69686211378377 	0.00813058241392118
5 	0.340575797787321 	2.42861286636753e-17 	1.23573645088546 	0.0717319096701362 	2.6471697426778 	0.00816462549084043
5 	0.360874345971201 	2.60208521396521e-17 	1.23552227696725 	0.0733192785407696 	2.6047587062224 	0.0082117152060389
5 	0.38191648941809 	2.42861286636753e-17 	1.23531625596766 	0.0748760683271446 	2.568859773474 	0.00827059798686513
5 	0.403729468200045 	1.73472347597681e-17 	1.23511875599341 	0.07639735808472 	2.53877148004498 	0.00833988277798191
5 	0.426341520272733 	2.08166817117217e-17 	1.23492996422054 	0.0778769602271422 	2.5138383760967 	0.00841798465829684
5 	0.449781918030829 	1.90819582357449e-17 	1.23474986418737 	0.0793072986035605 	2.49343198146908 	0.00850306658659595
4.99999999999999 	0.474081006202548 	1.56125112837913e-17 	1.23457821295234 	0.0806792839874588 	2.47693382272295 	0.00859298009017071
5 	0.499270241132363 	1.56125112837913e-17 	1.23441451832695 	0.0819821949824373 	2.46372018503332 	0.00868520673488518
5 	0.525382231502762 	1.56125112837913e-17 	1.2342580163812 	0.0832035752442717 	2.45314844644185 	0.00877680349518474
5 	0.552450780547767 	2.25514051876985e-17 	1.23410764940806 	0.084329161445033 	2.44454509038697 	0.00886435669872844
5 	0.580510929812849 	3.20923843055709e-17 	1.23396204453052 	0.0853428604874184 	2.43719572556692 	0.00894395102555267
5 	0.60959900451791 	3.98986399474666e-17 	1.23381949315107 	0.0862267989096397 	2.43033768412848 	0.00901116199233901
5 	0.639752660582032 	3.90312782094782e-17 	1.23367793149237 	0.0869614718041145 	2.42315601572932 	0.00906108223188864
5 	0.671010933370886 	3.72965547335014e-17 	1.23353492257835 	0.0875260222412516 	2.4147839313055 	0.00908839331802805
4.99999999999999 	0.7034142882299 	3.29597460435593e-17 	1.233387640178 	0.0878986841374905 	2.40430894767585 	0.0090874953371169
4.99999999999999 	0.737004672868605 	2.68882138776405e-17 	1.23323285550501 	0.0880574203366531 	2.39078609674439 	0.0090527051366985
4.99999999999999 	0.771825571663975 	3.12250225675825e-17 	1.23306692785842 	0.0879807815990138 	2.37325952642109 	0.00897853033171984
4.99999999999999 	0.807922061953053 	2.68882138776405e-17 	1.23288580092335 	0.087648999152903 	2.35079355247132 	0.00886001888844745
4.99999999999999 	0.845340872387742 	1.21430643318376e-17 	1.23268500713759 	0.0870453014322537 	2.32251363115031 	0.0086931729186698
5 	0.884130443427308 	1.30104260698261e-18 	1.23245968338261 	0.086157413211223 	2.28765673693144 	0.00847540043778302
5 	0.924340990046897 	3.90312782094782e-18 	1.23220460230478 	0.084979152724727 	2.24562922358315 	0.00820596176316329
5 	0.966024566743241 	6.93889390390723e-18 	1.23191422474814 	0.0835119921330161 	2.19606844962288 	0.00788635092260234
5 	1.00923513492173 	6.50521303491303e-18 	1.23158277955622 	0.0817663943070811 	2.13890229189804 	0.00752054098037769
5 	1.05402863275205 	1.2793585635329e-17 	1.23120437620869 	0.079762693917824 	2.07439829806321 	0.00711502055342301
5 	1.10046304758287 	1.99493199737333e-17 	1.23077315268891 	0.0775312700028888 	2.00319240299161 	0.00667856346078925
5 	1.14859849100923 	2.71050543121376e-17 	1.23028345714421 	0.0751117842466911 	1.92628745658442 	0.00622171049435897
5 	1.19849727668994 	2.82976767018717e-17 	1.22973006026716 	0.072551353011262 	1.84501556453216 	0.00575599975401955
5 	1.25022400101563 	2.35271871429354e-17 	1.22910813065579 	0.0699016249919008 	1.76096432842115 	0.00529307129500783
5 	1.30384562673185 	2.42861286636753e-17 	1.22841275292687 	0.0672156078767698 	1.6758946088143 	0.00484391806930814
5 	1.35943156962565 	3.12250225675825e-17 	1.22764294139783 	0.0645434199912013 	1.59160510132667 	0.00441752491925121
5 	1.41705378838762 	3.12250225675825e-17 	1.22679777058004 	0.0619269813659207 	1.50978487367335 	0.00402067785957904
5 	1.47678687776592 	2.08166817117217e-17 	1.22587804004541 	0.0593976254876743 	1.43192380330593 	0.00365768029789558
5 	1.53870816513277 	1.73472347597681e-17 	1.22488638794537 	0.0569732478398682 	1.35913431037397 	0.00333013321932654
5 	1.60289781058851 	2.08166817117217e-17 	1.22382697656829 	0.0546585814724 	1.2922570195548 	0.00303770304986995
5 	1.66943891073266 	2.08166817117217e-17 	1.22270527325539 	0.0524478578917794 	1.23208860441011 	0.00277917078171253
5 	1.73841760623657 	2.42861286636753e-17 	1.22152814770101 	0.0503250433054942 	1.17919358542488 	0.00255222925244907
5 	1.80992319335659 	3.46944695195361e-17 	1.2203038648195 	0.0482652233759657 	1.13386481377767 	0.00235368327352826
5 	1.88404823953248 	4.5102810375397e-17 	1.21904203350887 	0.0462381321849291 	1.09634428577917 	0.00218020783296769
5 	1.96088870322037 	5.20417042793042e-17 	1.21776666148292 	0.0442491986290924 	1.06737231999209 	0.00203119004113375
5 	2.02024009608345 	5.55111512312578e-17 	1.21680349421009 	0.0427189286317999 	1.05138234742065 	0.00193141066207996
5 	2.06000503604194 	0 	1.21613397069145 	0.0416595701184889 	1.04317842821734 	0.00186875786911059
5 	2.09836474743796 	0 	1.21552147359775 	0.0406735984596389 	1.03808398394284 	0.00181560031452141
5 	2.13536888877258 	-3.46944695195361e-18 	1.21493960342687 	0.039720643099042 	1.03556062925179 	0.00176873505805062
5 	2.17106536369585 	-6.93889390390723e-18 	1.21438734706013 	0.0387974608380322 	1.03547683558694 	0.00172747088296633
5 	2.20550038302044 	-6.93889390390723e-18 	1.21386363403543 	0.0379015010402816 	1.03773707104587 	0.00169124699993694
5 	2.23871852454378 	-6.93889390390723e-18 	1.21336725845672 	0.0370307444663925 	1.04227696953757 	0.00165960711013627
5 	2.27076279075613 	-6.93889390390723e-18 	1.21289701139746 	0.0361835779098047 	1.04905959307068 	0.00163217940847545
5 	2.3016746645094 	-6.93889390390723e-18 	1.21245170219367 	0.0353586984821832 	1.05807264064371 	0.00160866125856889
5 	2.33149416271872 	0 	1.21203016540618 	0.0345550410409787 	1.06932645617865 	0.00158880746512335
5 	2.36025988816626 	6.93889390390723e-18 	1.2116312688077 	0.0337717235970274 	1.08285271643548 	0.00157242132952808
5 	2.38800907947441 	0 	1.21125391923022 	0.0330080066044521 	1.09870370525051 	0.00155934787085568
5 	2.41477765931295 	-6.93889390390723e-18 	1.21089706617268 	0.0322632629137255 	1.11695210355592 	0.00154946874632283
5 	2.44060028090272 	-3.46944695195361e-18 	1.21055970383123 	0.0315369558841158 	1.13769124519125 	0.00154269852257105
5 	2.46551037287586 	-6.93889390390723e-18 	1.21024087197248 	0.0308286237221334 	1.16103580649139 	0.0015389820394614
5 	2.48954018255081 	-1.38777878078145e-17 	1.2099396559384 	0.0301378685613305 	1.18712291335512 	0.001538292677797
5 	2.512720817678 	-6.93889390390723e-18 	1.2096551860092 	0.0294643491481764 	1.21611366339585 	0.00154063139656962
5 	2.53508228671037 	-6.93889390390723e-18 	1.20938663630066 	0.0288077762680685 	1.2481950732843 	0.00154602644792078
5 	2.55665353765073 	-1.38777878078145e-17 	1.20913322333079 	0.0281679102508684 	1.28358247289803 	0.00155453371205957
5 	2.57746249552636 	-6.93889390390723e-18 	1.20889420435852 	0.0275445600496214 	1.32252237872104 	0.00156623762221833
5 	2.59753609853934 	0 	1.2086688755716 	0.0269375834994419 	1.36529588933686 	0.00158125267312517
5 	2.61690033293929 	0 	1.20845657018085 	0.0263468884436616 	1.41222265600226 	0.00159972552675544
5 	2.63558026666389 	3.46944695195361e-18 	1.20825665646207 	0.0257724344669169 	1.46366549126377 	0.00162183774725892
5 	2.65360008179049 	6.93889390390723e-18 	1.20806853577428 	0.0252142350039108 	1.52003568838889 	0.00164780921361171
5 	2.67098310584102 	1.04083408558608e-17 	1.20789164057337 	0.0246723596007644 	1.58179913395036 	0.00167790227410076
5 	2.68775184198056 	1.38777878078145e-17 	1.20772543243221 	0.0241469360947335 	1.64948330508134 	0.00171242672134508
5 	2.70392799814879 	1.04083408558608e-17 	1.20756940007294 	0.0236381524484237 	1.72368525153496 	0.00175174568004933
5 	2.71953251516198 	1.38777878078145e-17 	1.20742305741298 	0.0231462579269027 	1.80508067060354 	0.00179628251165236
5 	2.73458559382185 	2.08166817117217e-17 	1.20728594162399 	0.0226715632407103 	1.89443419023906 	0.0018465288497633
5 	2.74910672106653 	2.42861286636753e-17 	1.20715761120271 	0.0222144391957718 	1.99261098286871 	0.00190305388679884
5 	2.76311469519732 	2.42861286636753e-17 	1.20703764405409 	0.021775313295069 	2.10058984077964 	0.00196651503439758
5 	2.776627650214 	1.38777878078145e-17 	1.20692563559064 	0.0213546636313934 	2.21947785644329 	0.00203767007689583
5 	2.78966307929018 	6.93889390390723e-18 	1.20682119685847 	0.0209530093038757 	2.35052687317195 	0.00211739092779462
5 	2.80223785741904 	6.93889390390723e-18 	1.20672395270879 	0.0205708964962432 	2.49515191241868 	0.00220667908439415
5 	2.81436826325886 	6.93889390390723e-18 	1.20663354004515 	0.0202088792906289 	2.6549518591566 	0.00230668285882374
5 	2.82607000020647 	6.93889390390723e-18 	1.20654960618945 	0.0198674942821193 	2.83173281993182 	0.00241871645223361
5 	2.83735821672613 	1.04083408558608e-17 	1.20647180742377 	0.0195472281361744 	3.02753479492018 	0.00254428094781816
5 	2.8482475259599 	1.38777878078145e-17 	1.20639980777714 	0.0192484774257588 	3.24466267662692 	0.00268508735325902
5 	2.85875202464506 	1.38777878078145e-17 	1.2063332781352 	0.0189715004254625 	3.48572317439982 	0.00284308196478976
5 	2.86888531136304 	1.38777878078145e-17 	1.20627189575113 	0.01871636103981 	3.75367016073328 	0.0030204746136664
5 	2.87866050414343 	1.73472347597681e-17 	1.20621534422654 	0.0184828656882837 	4.05186226788736 	0.00321977087543194
5 	2.88809025744591 	2.08166817117217e-17 	1.20616331400674 	0.0182704947030967 	4.38413849703278 	0.00344381018400013
5 	2.89718677854204 	2.42861286636753e-17 	1.20611550339696 	0.0180783305034295 	4.75492036043579 	0.00369581313635867
5 	2.90596184331818 	2.77555756156289e-17 	1.2060716200549 	0.0179049853141007 	5.16935297863881 	0.00397944327174121
5 	2.91442681151997 	3.12250225675825e-17 	1.20603138285848 	0.0177485312610861 	5.63350308676898 	0.00429889147472986
5 	2.922592641458 	3.81639164714898e-17 	1.20599452399177 	0.0176064350231489 	6.154639866201 	0.004658995165701
5 	2.93046990419394 	3.46944695195361e-17 	1.20596079104899 	0.0174754975526711 	6.74163628531425 	0.0050654100145403
5 	2.93806879722526 	2.77555756156289e-17 	1.20592994893221 	0.0173517963976366 	7.40554664197506 	0.00552485970964609
5 	2.94539915768638 	2.77555756156289e-17 	1.20590178131595 	0.0172306235178091 	8.16044463803751 	0.00604550048135933
5 	2.95247047508334 	2.77555756156289e-17 	1.20587609146612 	0.0171064046765901 	9.0246536063428 	0.00663745363169345
5 	2.9592919035784 	2.77555756156289e-17 	1.2058527022128 	0.0169725765111716 	10.0225814307023 	0.0073135847605819
5 	2.96587227384055 	2.77555756156289e-17 	1.2058314548567 	0.0168213821330124 	11.1875160180954 	0.00809064863140397
5 	2.97222010447726 	2.77555756156289e-17 	1.20581220671682 	0.0166435211059794 	12.566000240645 	0.00899098331445235
5 	2.97834361306218 	2.77555756156289e-17 	1.205794826866 	0.0164275453672305 	14.2249075287327 	0.0100450406933538
5 	2.98425072677325 	2.77555756156289e-17 	1.20577918878374 	0.0161588085886655 	16.2633426615555 	0.0112951986347895
5 	2.98994909265477 	2.77555756156289e-17 	1.20576515567933 	0.0158176071002917 	18.8336047499852 	0.0128015068316207
5 	2.99544608751689 	2.77555756156289e-17 	1.20575255295987 	0.0153757906669227 	22.1801773050976 	0.014650124321126
5 	3.00074882748522 	2.42861286636753e-17 	1.2057411401027 	0.014790317566297 	26.7171216696099 	0.016964387278034
5 	3.00586417721304 	2.08166817117217e-17 	1.2057305660242 	0.0139903666159797 	33.1944143180753 	0.0199127227504163
5 	3.01079875876789 	1.73472347597681e-17 	1.20571983363131 	0.0128505530169706 	43.0909002205288 	0.0236769901999143
5 	3.01555896020418 	2.08166817117217e-17 	1.20570541597019 	0.0111374261034351 	59.6706240751557 	0.0282013662606164
5 	3.02015094383281 	2.08166817117217e-17 	1.2056820896877 	0.00845602637390924 	91.4516303488496 	0.0320197483658062
5 	3.02458065419861 	1.38777878078145e-17 	1.20565537467877 	0.0046190537460651 	168.97371701752 	0.0297349196338334
5 	3.02885382577582 	1.38777878078145e-17 	1.20563909189856 	0.00127188821160431 	484.340442397769 	0.0174714959802741
5 	3.03297599039165 	1.21430643318376e-17 	1.20563430868924 	0.000132644764044976 	1721.34144119859 	0.00496082158717336
