6 	0.00391112967796271 	0 	1.17066075544526 	9.07067138892414e-05 	445.411027026665
6 	0.0118766651674914 	0 	1.17065509143594 	0.000894276148844156 	124.852956778664
6 	0.020134001548576 	-1.38777878078145e-17 	1.17063843687819 	0.00329397578876959 	32.1551802320158
6 	0.0286938283423949 	-3.12250225675825e-17 	1.17060135286605 	0.0060545363178845 	14.791222816711
6 	0.0375672266585909 	-3.12250225675825e-17 	1.17054054126085 	0.00835114860434943 	9.28821468001788
6 	0.0467656835403032 	-3.12250225675825e-17 	1.17046293377194 	0.010230304407151 	6.82132884850133
6 	0.0563011068347007 	-3.46944695195361e-17 	1.1703745218103 	0.0118433909014697 	5.44434196445733
6 	0.0661858406082649 	-3.12250225675825e-17 	1.1702780181256 	0.0132841415322164 	4.56862496786051
6 	0.0764326811267816 	-3.46944695195361e-17 	1.17017493791497 	0.0146074750318509 	3.96394756816058
6 	0.0870548934207257 	-3.81639164714898e-17 	1.17006653206092 	0.0158476420351458 	3.5226423320349
6 	0.0980662284574838 	-3.12250225675825e-17 	1.1699538866306 	0.0170274504021755 	3.18772037948184
6 	0.109480940942647 	-3.12250225675825e-17 	1.16983795289952 	0.018162952945702 	2.92619329925058
6 	0.121313807773417 	-3.81639164714898e-17 	1.16971959677759 	0.0192659756390466 	2.7176362805402
6 	0.133580147168011 	-4.16333634234434e-17 	1.16959963149765 	0.0203455663242073 	2.54872523954837
6 	0.146295838495839 	-4.16333634234434e-17 	1.1694788338579 	0.0214088692010085 	2.41039967622491
6 	0.159477342834115 	-4.16333634234434e-17 	1.16935795242492 	0.0224616754977281 	2.29628769265455
6 	0.173141724277517 	-4.16333634234434e-17 	1.16923771147457 	0.0235087816713025 	2.2017828773169
6 	0.18730667202848 	-4.5102810375397e-17 	1.1691188117197 	0.0245542275647877 	2.12347825905871
6 	0.201990523296728 	-4.5102810375397e-17 	1.16900192854443 	0.0256014562231085 	2.05880569074681
6 	0.217212287037676 	-5.20417042793042e-17 	1.16888770874163 	0.0266534201397811 	2.00579840096069
6 	0.232991668560441 	-5.89805981832114e-17 	1.16877676577824 	0.0277126490018007 	1.96293004843822
6 	0.249349095037321 	-5.20417042793042e-17 	1.16866967391303 	0.0287812881983329 	1.92900274492211
6 	0.266305741947753 	-5.20417042793042e-17 	1.16856696135454 	0.0298611137463591 	1.90306723091163
6 	0.283883560490999 	-4.85722573273506e-17 	1.16846910255367 	0.0309535269542298 	1.88436461303365
6 	0.30210530600303 	-4.85722573273506e-17 	1.16837650967985 	0.0320595305891988 	1.87228280040267
6 	0.320994567414414 	-4.85722573273506e-17 	1.1682895232822 	0.0331796872554182 	1.86632307297823
6 	0.340575797787321 	-4.16333634234434e-17 	1.16820840207922 	0.0343140599686745 	1.86607366274134
6 	0.360874345971201 	-4.16333634234434e-17 	1.16813331176322 	0.0354621344543596 	1.87118816146224
6 	0.381916489418091 	-4.85722573273506e-17 	1.16806431267929 	0.036622722468458 	1.88136718226314
6 	0.403729468200046 	-5.20417042793042e-17 	1.1680013460824 	0.0377938454599121 	1.89634211430217
6 	0.426341520272733 	-4.85722573273506e-17 	1.1679442176599 	0.0389725982027112 	1.91586009477688
6 	0.441285719951471 	-4.16333634234434e-17 	1.16791002624421 	0.039733745849138 	1.93044972095037
6 	0.453216730116548 	-3.81639164714898e-17 	1.16788550351737 	0.0403253011982165 	1.94337584392765
6 	0.474081006202548 	-4.5102810375397e-17 	1.16784585365248 	0.0413359323970113 	1.96743807182094
6 	0.499270241132363 	-4.5102810375397e-17 	1.16780347650562 	0.0425088341007428 	1.99896115101902
6 	0.525382231502763 	-2.77555756156289e-17 	1.16776449811565 	0.0436654686823417 	2.033893600653
6 	0.552450780547767 	-1.04083408558608e-17 	1.16772681584918 	0.0447957793418135 	2.07184494955277
6 	0.58051092981285 	-3.46944695195361e-18 	1.16768804480383 	0.0458877002731408 	2.11235092227717
6 	0.609599004517911 	6.93889390390723e-18 	1.16765937722221 	0.046927842216419 	2.15489509014059
6 	0.639752660582033 	1.38777878078145e-17 	1.16767376718631 	0.047903136624009 	2.19892195699726
6 	0.671010933370887 	1.04083408558608e-17 	1.16773124513339 	0.0487965024969368 	2.2434196231626
6 	0.703414288229901 	1.38777878078145e-17 	1.16777667405248 	0.0495727802375833 	2.28598681089093
6 	0.737004672868607 	2.08166817117217e-17 	1.1677698807245 	0.0501747295767641 	2.32274071105811
6 	0.771825571663977 	2.08166817117217e-17 	1.16770487411132 	0.0505417679108992 	2.34951528596505
6 	0.807922061953054 	2.25514051876985e-17 	1.16758818300837 	0.0506253281559566 	2.36290572013466
6 	0.845340872387743 	2.77555756156289e-17 	1.16742461901507 	0.050392833533653 	2.36060659835146
6 	0.884130443427309 	2.94902990916057e-17 	1.16721302787742 	0.0498258719964328 	2.34131916854593
6 	0.924340990046898 	3.12250225675825e-17 	1.16694669055965 	0.0489187609868435 	2.3045933670482
6 	0.966024566743242 	3.46944695195361e-17 	1.16661550416757 	0.0476799563147123 	2.25074490954831
6 	1.00923513492173 	3.20923843055709e-17 	1.16620828284849 	0.0461351660587491 	2.1808295552868
6 	1.05402863275205 	3.03576608295941e-17 	1.16571438276208 	0.0443294384680707 	2.09662766940184
6 	1.10046304758287 	2.90566182226115e-17 	1.1651245963757 	0.0423257258136748 	2.00059089911278
6 	1.14859849100923 	2.47198095326695e-17 	1.16443165081139 	0.0401989249018281 	1.89570350293859
6 	1.19849727668994 	1.94072188874905e-17 	1.16363077734207 	0.0380269691252385 	1.78534409744832
6 	1.25022400101563 	1.85398571495021e-17 	1.16271926338869 	0.0358955664533916 	1.67551429311682
6 	1.30384562673186 	2.08166817117217e-17 	1.16169416730593 	0.0338707459059729 	1.57026740688373
6 	1.35943156962566 	2.08166817117217e-17 	1.16056543945757 	0.0319710305684095 	1.46954846010163
6 	1.41705378838763 	2.42861286636753e-17 	1.15933951151202 	0.0302020881093915 	1.37384212704958
6 	1.47678687776592 	2.42861286636753e-17 	1.1580237299553 	0.0285577310514172 	1.28371792125563
6 	1.53870816513278 	2.08166817117217e-17 	1.15662596736261 	0.0270181914553919 	1.19858009530437
6 	1.60289781058851 	2.08166817117217e-17 	1.15515464428161 	0.0255495693278283 	1.11593709635677
6 	1.66943891073267 	2.42861286636753e-17 	1.15361967370024 	0.0241265798378299 	1.03555005826523
6 	1.73841760623657 	3.12250225675825e-17 	1.1520325506043 	0.0227406962049343 	0.960671207540463
6 	1.8099231933566 	2.77555756156289e-17 	1.15041280126345 	0.0213851740126011 	0.894215178907797
6 	1.88404823953249 	1.73472347597681e-17 	1.1487976992881 	0.020042174950037 	0.836491441589659
6 	1.96088870322038 	1.38777878078145e-17 	1.1472828444565 	0.0187679731358518 	0.789025811995114
6 	2.02024009608346 	1.38777878078145e-17 	1.14609127475358 	0.0177557607631681 	0.756109793371423
6 	2.06000503604194 	0 	1.14520908800467 	0.0170079698873222 	0.73481603804773
6 	2.09836474743796 	0 	1.14445908749144 	0.0163633424003686 	0.718612375097265
6 	2.13536888877257 	0 	1.14375115701281 	0.0157482448038322 	0.705036705489947
6 	2.17106536369584 	-3.46944695195361e-18 	1.14308245802069 	0.0151613158572831 	0.693923681238891
6 	2.20550038302044 	0 	1.14245167281449 	0.0146013196836786 	0.685148492623688
6 	2.23871852454378 	6.93889390390723e-18 	1.14185710279675 	0.0140671225370104 	0.678620411065611
6 	2.27076279075613 	1.04083408558608e-17 	1.14129702913323 	0.0135576757119729 	0.674278091043465
6 	2.3016746645094 	1.04083408558608e-17 	1.1407697694376 	0.0130720039335529 	0.672086337876676
6 	2.33149416271872 	6.93889390390723e-18 	1.14027368062499 	0.0126091983279053 	0.672034070808166
6 	2.36025988816627 	6.93889390390723e-18 	1.1398071670632 	0.0121684131898706 	0.674133264563665
6 	2.38800907947441 	6.93889390390723e-18 	1.13936868816854 	0.0117488656617145 	0.678418702702951
6 	2.41477765931295 	6.93889390390723e-18 	1.13895676327464 	0.0113498374905081 	0.68494842575012
6 	2.44060028090272 	3.46944695195361e-18 	1.13856997448995 	0.0109706781670532 	0.693804800794464
6 	2.46551037287586 	0 	1.13820696803231 	0.0106108089028101 	0.705096175151182
6 	2.48954018255081 	0 	1.13786645435907 	0.0102697270382139 	0.718959104966048
6 	2.512720817678 	0 	1.13754720736525 	0.00994701058081384 	0.73556117111103
6 	2.53508228671037 	-3.46944695195361e-18 	1.13724806287971 	0.00964232263969471 	0.755104409926051
6 	2.55665353765073 	-1.04083408558608e-17 	1.13696791664545 	0.00935541555359867 	0.777829395384273
6 	2.57746249552636 	-1.38777878078145e-17 	1.13670572193307 	0.0090861345061284 	0.804020011502329
6 	2.59753609853934 	-1.38777878078145e-17 	1.13646048690396 	0.00883442038509555 	0.834008947963745
6 	2.61690033293929 	-1.38777878078145e-17 	1.13623127181405 	0.00860031157748471 	0.868183935934716
6 	2.63558026666389 	-1.38777878078145e-17 	1.1360171861279 	0.0083839443003951 	0.906994712279783
6 	2.65360008179049 	-1.38777878078145e-17 	1.1358173855977 	0.00818555095728028 	0.950960655865753
6 	2.67098310584102 	-1.38777878078145e-17 	1.13563106935118 	0.00800545588677989 	1.00067897666355
6 	2.68775184198056 	-1.73472347597681e-17 	1.13545747702666 	0.00784406775255877 	1.05683325544062
6 	2.70392799814879 	-2.08166817117217e-17 	1.13529588599161 	0.00770186772788545 	1.12020203023047
6 	2.71953251516198 	-2.08166817117217e-17 	1.13514560868261 	0.00757939258715565 	1.19166701148292
6 	2.73458559382185 	-2.08166817117217e-17 	1.13500599010765 	0.00747721186441487 	1.2722203940237
6 	2.74910672106653 	-2.08166817117217e-17 	1.13487640555504 	0.00739589841617388 	1.36297064334951
6 	2.76311469519732 	-2.08166817117217e-17 	1.1347562585551 	0.00733599206902387 	1.46514609982471
6 	2.776627650214 	-1.73472347597681e-17 	1.13464497913753 	0.00729795656368522 	1.58009581040921
6 	2.78966307929018 	-1.38777878078145e-17 	1.13454202241979 	0.00728213071967233 	1.70928721250536
6 	2.80223785741904 	-1.73472347597681e-17 	1.13444686754537 	0.00728867559090881 	1.85430070401837
6 	2.81436826325886 	-1.38777878078145e-17 	1.134359016969 	0.00731752026665125 	2.016821767878
6 	2.82607000020647 	-6.93889390390723e-18 	1.13427799606213 	0.00736830975574521 	2.19863217943754
6 	2.83735821672613 	-6.93889390390723e-18 	1.13420335299961 	0.00744035891557476 	2.40160287507014
6 	2.8482475259599 	-6.93889390390723e-18 	1.13413465882333 	0.00753261650267465 	2.62769222760794
6 	2.85875202464506 	0 	1.13407150731487 	0.00764364303501243 	2.8789546681379
6 	2.86888531136304 	6.93889390390723e-18 	1.13401351494085 	0.00777160525699623 	3.15756573942625
6 	2.87866050414343 	1.04083408558608e-17 	1.13396032563186 	0.00791428867371638 	3.4658707526315
6 	2.88809025744591 	1.38777878078145e-17 	1.13391161818972 	0.00806912803517757 	3.80646535099279
6 	2.89718677854204 	1.38777878078145e-17 	1.13386701827995 	0.00823325383966067 	4.18231872286839
6 	2.90596184331818 	1.38777878078145e-17 	1.13382604143507 	0.00840354191538021 	4.59762459899859
6 	2.91442681151997 	1.04083408558608e-17 	1.13378835714209 	0.00857662504750727 	5.05863322616067
6 	2.922592641458 	6.93889390390723e-18 	1.13375394928523 	0.00874806602425145 	5.57167499858934
6 	2.93046990419394 	6.93889390390723e-18 	1.13372282370321 	0.00891134215536122 	6.14064575311327
6 	2.93806879722526 	6.93889390390723e-18 	1.13369479986362 	0.00905866803350267 	6.76825100789147
6 	2.94539915768638 	3.46944695195361e-18 	1.1336696118385 	0.00918259423917115 	7.45922218329015
6 	2.95247047508334 	0 	1.13364702461178 	0.00927670742621564 	8.22294026334747
6 	2.9592919035784 	0 	1.13362686245802 	0.00933560861825236 	9.07564117687149
6 	2.96587227384055 	0 	1.13360899986574 	0.00935448903339574 	10.0428876230519
6 	2.97222010447726 	0 	1.13359334719802 	0.00932848379363019 	11.1631971066457
6 	2.97834361306218 	0 	1.13357985101168 	0.00925180594532432 	12.4940383026752
6 	2.98425072677325 	3.46944695195361e-18 	1.13356852986666 	0.00911648937722149 	14.1221692009896
6 	2.98994909265477 	6.93889390390723e-18 	1.13355944457812 	0.00891038736393888 	16.182066843872
6 	2.99544608751689 	6.93889390390723e-18 	1.13355253283317 	0.00861381167759262 	18.8896595688686
6 	3.00074882748522 	6.93889390390723e-18 	1.13354759321819 	0.00819366163958647 	22.6073498960905
6 	3.00586417721304 	3.46944695195361e-18 	1.13354445760572 	0.00759345386618237 	27.9798301645267
6 	3.01079875876789 	0 	1.1335429637436 	0.00671843622089318 	36.2530601491738
6 	3.01555896020418 	0 	1.13354276770514 	0.00541969430727537 	50.1945745587538
6 	3.02015094383281 	0 	1.1335432892787 	0.00361267899447616 	77.9645867933499
6 	3.02458065419861 	0 	1.13354394943042 	0.00171104436978211 	159.622903967863
6 	3.02885382577582 	0 	1.13354450384138 	0.000475975739437074 	652.377901642493
6 	3.03297599039165 	0 	1.13354487164192 	5.66397194188522e-05 	1462.76797805124
