7 	0.0118766634903468 	1.73472347597681e-17 	-0.0154317101492181 	-4.67269970040933e-07 	1.55741579088128e-19
7 	0.0201339998195326 	1.90819582357449e-17 	-0.0120626502109695 	7.82923093131623e-05 	1.1959976843386e-20
7 	0.0286938265600376 	2.25514051876985e-17 	-0.00544236454185196 	0.000129614324603981 	-4.70229741197449e-20
7 	0.0375672248214896 	2.25514051876985e-17 	0.000593059883035357 	0.000165368277723745 	-4.50229918019469e-21
7 	0.0467656816470147 	2.25514051876985e-17 	0.0058096238765702 	0.000182982716693591 	1.48918223320711e-20
6.99999999999999 	0.0563011048837713 	2.08166817117217e-17 	0.0105350217783352 	0.000181572765777288 	-1.5425315637243e-23
7 	0.0661858385982334 	1.21430643318376e-17 	0.0149856048932522 	0.000161458409981021 	-1.6810473877604e-20
7 	0.0764326790561828 	0 	0.0192878483546229 	0.000123183026193839 	-1.38639079006732e-20
7 	0.0870548912880936 	-3.46944695195361e-18 	0.0235211972012167 	6.71274125793188e-05 	4.74885556427801e-23
7 	0.0980662262613554 	3.46944695195361e-18 	0.0277400327812814 	-6.47619508957948e-06 	1.12436210926882e-20
7 	0.109480938681567 	1.04083408558608e-17 	0.0319846204879477 	-9.74744760629123e-05 	-2.4104578163332e-20
6.99999999999999 	0.121313805445942 	1.04083408558608e-17 	0.0362869109577968 	-0.000205747050667855 	-1.32928200567483e-21
6.99999999999999 	0.133580144772717 	6.93889390390723e-18 	0.0406738320342851 	-0.000331174787698666 	1.33022839841136e-23
6.99999999999999 	0.146295836031327 	3.46944695195361e-18 	0.0451692798581631 	-0.000473613422095362 	8.96442564236889e-21
6.99999999999999 	0.159477340299017 	3.46944695195361e-18 	0.0497953978941338 	-0.000632869106607643 	-6.93845907654322e-22
7 	0.173141721670501 	6.93889390390723e-18 	0.0545734468707911 	-0.0008086742943424 	-3.26251825354579e-22
7 	0.187306669348262 	6.93889390390723e-18 	0.0595244289454282 	-0.00100066284950636 	-1.77981171697039e-20
7 	0.20199052054208 	6.93889390390723e-18 	0.0646695612786165 	-0.00120834337787145 	-1.75788865890538e-20
7 	0.217212284207436 	6.93889390390723e-18 	0.0700306550974836 	-0.00143106995571627 	2.83470263770011e-22
7 	0.232991665653523 	1.04083408558608e-17 	0.0756304347517823 	-0.00166800961669106 	2.3115064047064e-22
7 	0.249349092052728 	1.04083408558608e-17 	0.081492818558642 	-0.0019181060183174 	1.70022917977903e-20
7 	0.266305738884589 	0 	0.087643175362648 	-0.0021800387600004 	1.71828866876256e-20
7 	0.283883557348484 	-6.28837260041593e-18 	0.0941085086322108 	-0.00245167959758186 	1.72483218570933e-20
7 	0.302105302780516 	-1.01915004213637e-17 	0.100918775943901 	-0.00272922813931315 	4.82204889172508e-22
7 	0.320994564111403 	-1.43114686768087e-17 	0.108106183722306 	-0.00301183723969872 	2.11141927741292e-22
7 	0.340575794403482 	-1.56125112837913e-17 	0.115704417358919 	-0.00329661772336268 	-2.81433096972401e-21
7 	0.360874342506392 	-1.47451495458029e-17 	0.123749759796963 	-0.00358012508941491 	-4.09562655147066e-21
7 	0.38191648587238 	-1.64798730217797e-17 	0.132281278129682 	-0.00385828300400962 	-2.70682849408822e-20
7 	0.403729464573739 	-2.08166817117217e-17 	0.141340986250091 	-0.00412630145229257 	9.97542487913022e-22
7 	0.426341516566396 	-2.60208521396521e-17 	0.150973972251091 	-0.0043785904376528 	4.88525751435073e-21
7 	0.44978191424532 	-2.94902990916057e-17 	0.161228475585875 	-0.00460866991840495 	2.59283604181955e-20
7 	0.474081002339049 	-2.42861286636753e-17 	0.172155895024289 	-0.00480907673100456 	-3.29637544439429e-21
7 	0.499270237192413 	-2.42861286636753e-17 	0.183810702825922 	-0.00497128158932488 	-1.80461063189263e-21
7 	0.525382227488298 	-2.77555756156289e-17 	0.196250229904824 	-0.00508564897723942 	2.53926624682459e-20
7 	0.552450776461161 	-2.42861286636753e-17 	0.209534297216567 	-0.00514127902275093 	-9.97633331982861e-22
7 	0.580510925656956 	-1.73472347597681e-17 	0.223724817310648 	-0.00512489654715219 	7.70655839423668e-21
7 	0.609599000296117 	-1.04083408558608e-17 	0.238889778769304 	-0.00502315668923445 	1.72013567210255e-20
7 	0.639752656298308 	-6.93889390390723e-18 	0.255165217690193 	-0.00483291499697797 	-2.38574305721225e-20
7 	0.671010929029843 	-3.46944695195361e-18 	0.272930297916431 	-0.00455777218154832 	2.11531729707788e-20
7 	0.703414283836854 	-1.04083408558608e-17 	0.292640064641601 	-0.00419744917062409 	2.06586340896385e-16
7 	0.737004668429647 	-1.38777878078145e-17 	0.314520287503923 	-0.00373938771847298 	2.79479176289747e-16
7 	0.761419519668443 	-6.93889390390723e-18 	0.331196211216519 	-0.00334937914963232 	-1.29046265354885e-16
7 	0.779162313841552 	-4.55364912443912e-18 	0.343727151008754 	-0.0030274394958753 	-3.75202814167497e-16
6.99999999999999 	0.807992742715646 	4.55364912443912e-18 	0.364564689913278 	-0.00244361710912927 	-2.29312576024432e-16
6.99999999999999 	0.845475280399477 	9.10729824887824e-18 	0.392417131068939 	-0.00157604072645393 	2.47401815905565e-20
6.99999999999999 	0.884326557652535 	8.67361737988404e-18 	0.421925741372273 	-0.000556087978819283 	1.74746961686072e-20
6.99999999999999 	0.924596372923087 	3.46944695195361e-18 	0.452919840632036 	0.000611152753969595 	3.70689591328156e-20
6.99999999999999 	0.966336321272196 	-3.46944695195361e-18 	0.485237275240774 	0.00191656918722885 	-7.41308656723083e-20
6.99999999999999 	1.00959985787075 	-5.20417042793042e-18 	0.518693859826237 	0.00334657557465264 	4.20018380832425e-20
6.99999999999999 	1.05444236361788 	-6.93889390390723e-18 	0.553052488635078 	0.00488063664519592 	4.87697388573921e-21
6.99999999999999 	1.10092121293912 	-3.46944695195361e-18 	0.588006547851881 	0.00648858001375712 	1.25670484535287e-19
6.99999999999999 	1.14909584382294 	0 	0.623184915860924 	0.00812955252802639 	-1.17681059783544e-20
7 	1.19902783015393 	-3.46944695195361e-18 	0.658177210079864 	0.0097534410020071 	7.86856769233522e-20
7 	1.25078095640108 	-8.45677694538693e-18 	0.692571890095319 	0.0113070656506919 	-8.98893698446256e-20
7 	1.30442129471847 	-1.01915004213637e-17 	0.725952751837468 	0.0127379779506714 	-1.51784557667169e-19
7 	1.36001728451516 	-1.04083408558608e-17 	0.757955543769514 	0.0139820103688506 	-1.57490531161002e-20
7 	1.41763981454947 	-1.38777878078145e-17 	0.788369930252138 	0.0150042107574815 	-2.96593036111783e-20
7 	1.47736230760124 	-1.56125112837913e-17 	0.817111606907877 	0.0157867671092283 	-4.97492363399779e-16
7 	1.53926080777324 	-1.04083408558608e-17 	0.844187078817158 	0.0163270018881672 	-3.40552090121317e-15
7 	1.60341407047001 	-1.38777878078145e-17 	0.869653070590078 	0.0166315514301652 	2.81640207033754e-15
7 	1.66893489902569 	-1.04083408558608e-17 	0.893239321740334 	0.016712958025206 	1.05077338236656e-15
7 	1.7027752979414 	-2.54787510534094e-18 	0.904822011502085 	0.0166962055155527 	2.9005203247521e-17
7 	1.73884798288128 	2.65629532258949e-18 	0.916037551681418 	0.0165891608518473 	-1.24970284961953e-19
7 	1.81031024575141 	1.04083408558608e-17 	0.937041146434478 	0.016272639788293 	-1.95140666031513e-19
7 	1.88432958821743 	1.04083408558608e-17 	0.956472851311377 	0.0157645680010252 	3.45940601773006e-20
7 	1.9609947218388 	1.90819582357449e-17 	0.973883671887332 	0.0150631731394335 	7.74064921005527e-21
7 	2.02024009608346 	2.77555756156289e-17 	0.986131047228494 	0.0144606793226828 	5.57870003720432e-22
7 	2.06000503604194 	3.46944695195361e-18 	0.994028914639601 	0.0140509851874292 	0
7 	2.09836474743796 	3.46944695195361e-18 	1.00104110760412 	0.0136570608815828 	0
7 	2.13536888877258 	3.46944695195361e-18 	1.00748684148785 	0.013279675482388 	0
7 	2.17106536369585 	3.46944695195361e-18 	1.01339511719712 	0.0129157439771096 	0
7 	2.20550038302044 	3.46944695195361e-18 	1.01879577799665 	0.0125628879439126 	0
7 	2.23871852454378 	3.46944695195361e-18 	1.02371833174848 	0.0122200438324531 	0
7 	2.27076279075613 	0 	1.02819097279175 	0.0118865147301286 	0
7 	2.30167466450941 	-3.46944695195361e-18 	1.03223996004112 	0.0115618304442622 	0
7 	2.33149416271872 	-6.93889390390723e-18 	1.03588926071197 	0.0112456833165003 	0
7 	2.36025988816627 	-1.38777878078145e-17 	1.03916036595648 	0.0109378604963752 	0
7 	2.38800907947441 	-2.08166817117217e-17 	1.04207221469768 	0.0106381967514912 	0
7 	2.41477765931295 	-2.08166817117217e-17 	1.04464118205211 	0.0103465451808755 	0
7 	2.44060028090272 	-1.73472347597681e-17 	1.04688110269935 	0.0100627596378642 	0
7 	2.46551037287586 	-1.90819582357449e-17 	1.0488033095492 	0.0097866849774662 	0
7 	2.48954018255081 	-2.08166817117217e-17 	1.05041667498315 	0.00951815249094555 	0
7 	2.512720817678 	-1.73472347597681e-17 	1.05172764672027 	0.00925697865259871 	0
7 	2.53508228671037 	-1.38777878078145e-17 	1.05274027373569 	0.00900296588724001 	0
7 	2.55665353765073 	-1.38777878078145e-17 	1.05345622018817 	0.00875590448951677 	0
7 	2.57746249552636 	-1.38777878078145e-17 	1.05387476738037 	0.00851557511713962 	0
7 	2.59753609853934 	-1.38777878078145e-17 	1.05399280565641 	0.00828175147524238 	0
7 	2.61690033293929 	-1.73472347597681e-17 	1.05380482003071 	0.00805420293551337 	0
7 	2.63558026666389 	-2.08166817117217e-17 	1.0533028753615 	0.00783269691081579 	0
7 	2.65360008179049 	-2.08166817117217e-17 	1.05247660907623 	0.00761700084795405 	0
7 	2.67098310584102 	-2.42861286636753e-17 	1.05131324177661 	0.00740688371885948 	0
7 	2.68775184198056 	-2.77555756156289e-17 	1.04979761832282 	0.00720211689271618 	0
7 	2.70392799814879 	-2.77555756156289e-17 	1.04791229389391 	0.00700247426678716 	0
7 	2.71953251516198 	-2.77555756156289e-17 	1.04563768054236 	0.00680773153071674 	0
7 	2.73458559382185 	-2.42861286636753e-17 	1.04295226925021 	0.00661766444743097 	0
7 	2.74910672106653 	-2.08166817117217e-17 	1.03983293971886 	0.00643204606355606 	0
7 	2.76311469519732 	-2.08166817117217e-17 	1.03625536443692 	0.00625064282269867 	0
7 	2.776627650214 	-2.42861286636753e-17 	1.03219450465154 	0.00607320965166862 	0
7 	2.78966307929018 	-3.12250225675825e-17 	1.02762518400525 	0.00589948422149711 	0
7 	2.80223785741904 	-3.46944695195361e-17 	1.02252271189125 	0.00572918074068916 	0
7 	2.81436826325886 	-3.81639164714898e-17 	1.01686351494368 	0.00556198379561688 	0
7 	2.82607000020647 	-3.81639164714898e-17 	1.01062572393993 	0.00539754288065972 	0
7 	2.83735821672613 	-3.12250225675825e-17 	1.00378965706379 	0.00523546831449065 	0
7 	2.8482475259599 	-2.77555756156289e-17 	0.99633814040294 	0.00507532919588306 	0
7 	2.85875202464506 	-2.77555756156289e-17 	0.988256612693188 	0.00491665411583807 	0
7 	2.86888531136304 	-2.77555756156289e-17 	0.979532971978349 	0.00475893560519393 	0
7 	2.87866050414343 	-2.77555756156289e-17 	0.970157134021682 	0.00460163589477222 	0
7 	2.88809025744591 	-3.29597460435593e-17 	0.960120282362279 	0.00444418072268801 	0
7 	2.89718677854204 	-3.81639164714898e-17 	0.949413794280275 	0.00428598084119812 	0
7 	2.90596184331818 	-4.16333634234434e-17 	0.938023985222397 	0.00412674025145858 	0
7 	2.91442681151997 	-4.5102810375397e-17 	0.925895008813863 	0.00396526314165913 	0
7 	2.922592641458 	-4.5102810375397e-17 	0.912933355345428 	0.00379993446172712 	0
7 	2.93046990419394 	-4.5102810375397e-17 	0.899096515852326 	0.00362900593281287 	0
7 	2.93806879722526 	-4.16333634234434e-17 	0.884418782670243 	0.00345147304549977 	0
7 	2.94539915768638 	-3.46944695195361e-17 	0.868960536172908 	0.00326630927087097 	0
7 	2.95247047508334 	-3.12250225675825e-17 	0.852764225671216 	0.00307247573483375 	0
7 	2.9592919035784 	-3.12250225675825e-17 	0.835811629500706 	0.0028696337222704 	0
7 	2.96587227384055 	-3.12250225675825e-17 	0.817970884914955 	0.00265913477535566 	0
7 	2.97222010447726 	-3.46944695195361e-17 	0.799017321271515 	0.00244218746821281 	0
7 	2.97834361306218 	-3.46944695195361e-17 	0.77868495329475 	0.0022207963395953 	0
7 	2.98425072677325 	-3.12250225675825e-17 	0.756628332169589 	0.00199538303044513 	0
7 	2.98994909265477 	-3.12250225675825e-17 	0.732354940187186 	0.00176658080411939 	0
7 	2.99544608751689 	-3.12250225675825e-17 	0.705142029194866 	0.00153538237363055 	0
7 	3.00074882748522 	-2.94902990916057e-17 	0.673895852298563 	0.00130314123479331 	0
7 	3.00586417721304 	-3.12250225675825e-17 	0.636877439694681 	0.00107176319701314 	0
7 	3.01079875876789 	-3.46944695195361e-17 	0.591178505061545 	0.000843920100848105 	0
7 	3.01555896020418 	-3.46944695195361e-17 	0.532055771077878 	0.000624382285977049 	0
7 	3.02015094383281 	-3.46944695195361e-17 	0.452115014310362 	0.00041833293634308 	0
7 	3.02458065419861 	-3.46944695195361e-17 	0.34359714226672 	0.000232898817337884 	0
7 	3.02885382577582 	-3.12250225675825e-17 	0.211078638474006 	9.00289650774536e-05 	0
7 	3.03297599039165 	-3.46944695195361e-17 	0.0709183831203803 	1.16861313994018e-05 	0
