# Residuals            
# Time                 	Ux                     	Uy                     	p                      	k                      	omega                  
1                      	9.999999995171420e-01	1.000000000000000e+00	1.000000000000000e+00	9.999999999956718e-01	1.683064907011024e-01
2                      	8.024483589655571e-01	8.599059905412971e-01	9.394815417384700e-01	9.406658338962344e-01	2.731071494106408e-01
3                      	1.633376770364592e-01	1.383511471993976e-01	9.411239469985386e-01	1.338699980516712e-01	3.284024477786495e-01
4                      	4.626765832114667e-01	5.854275738020743e-01	8.044667097304331e-01	3.802266639353520e-01	1.943784809441019e-01
5                      	3.769103814983635e-01	3.915305223257736e-01	9.138342068830866e-01	3.531303409857751e-01	1.150924822319843e-01
6                      	4.100475627614092e-01	4.798092808733307e-01	6.856443021114214e-01	2.354680938545710e-01	1.439606931358713e-01
7                      	4.278902693818154e-01	5.223131078026618e-01	8.735543478445170e-01	3.916547662151076e-01	1.464991443457965e-01
8                      	2.953206303249085e-01	2.967790397039734e-01	8.521761229285210e-01	3.152843994400728e-01	1.315038772382689e-01
9                      	4.210833564956077e-01	4.713958155788905e-01	7.480787413161134e-01	2.473769820016188e-01	1.529444357200691e-01
10                     	3.609068057661781e-01	3.726430879713138e-01	8.542923261233720e-01	2.568209672239966e-01	1.140103383353730e-01
11                     	3.493665318202621e-01	3.783011501454809e-01	7.542446339644548e-01	2.222306109977579e-01	1.093957362645299e-01
12                     	3.839786769269325e-01	4.910675900586366e-01	7.819711158597941e-01	2.789398995474616e-01	1.265790354462177e-01
13                     	2.525472770577001e-01	3.153438005682013e-01	8.070309858539618e-01	2.523491408141275e-01	1.328963542165337e-01
14                     	2.959426553093162e-01	3.641332118154200e-01	7.331218554507775e-01	1.755762810715458e-01	1.790255262852888e-01
15                     	2.491391799947965e-01	3.149580675612156e-01	7.909651659525191e-01	1.525962152177505e-01	8.772290886751226e-02
16                     	2.209613067446092e-01	3.015674942240835e-01	7.825195353087713e-01	1.284111832305145e-01	4.780347647708415e-02
17                     	2.120531402285167e-01	2.769319862840708e-01	7.526380838078288e-01	1.047189998667272e-01	3.959161376554457e-02
18                     	1.467409241980985e-01	2.154253761745192e-01	7.288215424104816e-01	9.007111959517955e-02	3.049301703972266e-02
19                     	1.337736968268272e-01	2.259175426396017e-01	7.235562618562184e-01	7.214167627815499e-02	2.105337882211969e-02
20                     	1.121147786701985e-01	1.958815997096335e-01	7.266603406243157e-01	6.083853453046371e-02	1.638821429906598e-02
21                     	7.989143897065140e-02	1.265543105976743e-01	7.180508914394443e-01	5.391696913309371e-02	1.289382739825876e-02
22                     	7.324286796801360e-02	1.219434179720110e-01	6.979374985508057e-01	4.846753252438048e-02	1.003856129440978e-02
23                     	6.362453456166189e-02	1.111454171280613e-01	6.800425616877507e-01	4.256991191585081e-02	8.567075993948249e-03
24                     	4.990657962004519e-02	7.989539733828036e-02	6.526543239368275e-01	3.838187752096511e-02	7.343143920268770e-03
25                     	4.647451801714273e-02	7.356874858758734e-02	6.435380081033112e-01	3.622511097366957e-02	6.378264784242623e-03
26                     	4.184972740498741e-02	6.573659989634545e-02	6.230836588694056e-01	3.362208092616911e-02	5.605373655237645e-03
27                     	3.639982788116631e-02	5.200896602981096e-02	6.025322733347597e-01	3.180004904597917e-02	4.957954155640454e-03
28                     	3.599431291526223e-02	4.793687208252204e-02	5.471248114588844e-01	3.060519698995993e-02	4.535955380951953e-03
29                     	3.465060041944691e-02	4.598472192579940e-02	5.076505524831439e-01	2.908320427556706e-02	5.654773845774359e-03
30                     	3.254165484054018e-02	4.123120614568798e-02	4.807926855364389e-01	2.834896781117338e-02	1.742673558229310e-02
31                     	3.110067842874891e-02	3.786726639307866e-02	4.379008069162276e-01	2.885222860008742e-02	6.140704415416745e-03
32                     	3.015955737811970e-02	3.653540540360584e-02	3.958350325195764e-01	2.823298005830501e-02	4.466392206965947e-03
33                     	2.920710217118089e-02	3.490023539869314e-02	3.578499463739058e-01	2.811742648571969e-02	3.834846301717038e-03
34                     	2.818699443148782e-02	3.434126784301626e-02	3.371831193886563e-01	2.884989520400023e-02	3.443774840168593e-03
35                     	2.717674021513769e-02	3.432767244109077e-02	3.010726467773518e-01	2.809357034574302e-02	3.258924729954423e-03
36                     	2.632264875613213e-02	3.388524493983616e-02	2.667864789203032e-01	2.795701332923113e-02	3.147823617735494e-03
37                     	2.570142225619966e-02	3.311107747112619e-02	2.344303705546058e-01	2.769424383003374e-02	3.028678197618272e-03
38                     	2.516824880700652e-02	3.233587922649629e-02	2.206618695046280e-01	2.735519198109364e-02	2.872264739741332e-03
39                     	2.473581176313580e-02	3.194813505721907e-02	2.167468073792931e-01	2.827672169814913e-02	2.763943235513646e-03
40                     	2.427505811709095e-02	3.188260417308918e-02	2.045531311058409e-01	2.706508402710702e-02	2.719005700132550e-03
41                     	2.384156032224807e-02	3.181244990187346e-02	1.945600632319948e-01	2.698603128759944e-02	2.526944115131218e-03
42                     	2.343291244718209e-02	3.183660386900025e-02	1.840672443562117e-01	2.713400825945424e-02	2.400627035987220e-03
43                     	2.294758638572618e-02	3.179479830542555e-02	1.763886982944911e-01	2.734254200105549e-02	2.290806107019489e-03
44                     	2.240891958975336e-02	3.164198848384432e-02	1.703922024851512e-01	2.879063588619257e-02	2.215375984609218e-03
45                     	2.190707956531349e-02	3.138129440674315e-02	1.690098795477491e-01	2.719001666643622e-02	2.186025618537253e-03
46                     	2.147509221995129e-02	3.100068438716161e-02	1.716748719163547e-01	2.680435929125909e-02	2.081722099988833e-03
47                     	2.109844415222737e-02	3.070628586104900e-02	1.702255653212219e-01	2.659360017953979e-02	2.001522135903522e-03
48                     	2.071967256821496e-02	3.037465226247337e-02	1.647443322540581e-01	2.639678377508371e-02	1.938684408346295e-03
49                     	2.036586150235170e-02	3.005609942436802e-02	1.597909477079609e-01	2.625725475225228e-02	1.874565127023311e-03
50                     	2.004399771751461e-02	2.967685801875983e-02	1.582732916678024e-01	2.611784607446153e-02	1.816735719250640e-03
51                     	1.973143560863292e-02	2.926940292778438e-02	1.582310336076191e-01	2.620735060233362e-02	1.762613572176279e-03
52                     	1.946762261480310e-02	2.909480092583453e-02	1.571997395443389e-01	2.623711070278330e-02	1.706286236819648e-03
53                     	1.920629117630408e-02	2.892172970991108e-02	1.568803737655666e-01	2.619340965344348e-02	1.649725410750919e-03
54                     	1.896318995266886e-02	2.868971029564922e-02	1.574463426400628e-01	2.600231778132175e-02	1.601175673747741e-03
55                     	1.873640116141985e-02	2.831747846807602e-02	1.565703847416826e-01	2.565858699176490e-02	1.515222441203799e-03
56                     	1.856475321501875e-02	2.785869765941606e-02	1.558647589902098e-01	2.533707486669601e-02	1.441579372258931e-03
57                     	1.842576829917381e-02	2.736998452175640e-02	1.553557067857249e-01	2.506588655835577e-02	1.382376585545808e-03
58                     	1.828590186253758e-02	2.691835877738340e-02	1.553579424102922e-01	2.468632072727000e-02	1.332199748573118e-03
59                     	1.812159029563251e-02	2.647403630834531e-02	1.545860112196060e-01	2.434111406468293e-02	1.286399054670047e-03
60                     	1.793292275074702e-02	2.601078502490584e-02	1.527356715191953e-01	2.407781857668451e-02	1.241155000380149e-03
61                     	1.774681884503124e-02	2.549265692012991e-02	1.499742165786040e-01	2.380412190216780e-02	1.225992107604265e-03
62                     	1.754710489508211e-02	2.495945210161414e-02	1.528410626576155e-01	2.349173228906148e-02	1.210671128049516e-03
63                     	1.737090045084879e-02	2.452967887542629e-02	1.558292965138606e-01	2.320793149424847e-02	1.191274860734906e-03
64                     	1.719542277745592e-02	2.412706167762517e-02	1.566293122007254e-01	2.277853915188416e-02	1.166323415023425e-03
65                     	1.703416464984097e-02	2.371395139063943e-02	1.560329417546754e-01	2.227332935479042e-02	1.143303923236679e-03
66                     	1.687372123746764e-02	2.322430422542355e-02	1.519726724877700e-01	2.169957513668389e-02	1.122960572356409e-03
67                     	1.670624790679669e-02	2.271863196245672e-02	1.499189593285929e-01	2.138785000134107e-02	1.103782585332900e-03
68                     	1.653284579537039e-02	2.221605499856023e-02	1.484562727368763e-01	2.115885701547543e-02	1.083093983228366e-03
69                     	1.633199553888719e-02	2.175905910667224e-02	1.475058191444881e-01	2.087056675933297e-02	1.059763027147772e-03
70                     	1.612897415188326e-02	2.142353944199107e-02	1.457623894578197e-01	2.051207702528756e-02	1.036518571393874e-03
71                     	1.591739461525787e-02	2.113488046965547e-02	1.465821379542393e-01	2.003451565707555e-02	9.904665074059972e-04
72                     	1.573578979193252e-02	2.085420065994606e-02	1.477044819002426e-01	1.959183972298550e-02	9.732201018050195e-04
73                     	1.556627800949687e-02	2.051791579220385e-02	1.451860936054210e-01	1.921902998366156e-02	9.345144654444812e-04
74                     	1.540456667209910e-02	2.018256352860133e-02	1.436634579036548e-01	1.891564980279651e-02	9.317028249110945e-04
75                     	1.524271232501516e-02	1.985640178231052e-02	1.447585019501528e-01	1.864918704786281e-02	9.067263157479866e-04
76                     	1.508478882971194e-02	1.956751766547628e-02	1.431420238699063e-01	1.838807459016604e-02	8.921219793511944e-04
77                     	1.492414529202906e-02	1.929971632818358e-02	1.418875205984975e-01	1.812041823339497e-02	8.772105054791074e-04
78                     	1.475805447591906e-02	1.902140956900755e-02	1.404040162785438e-01	1.785988759880681e-02	8.607841572763335e-04
79                     	1.459183212629492e-02	1.875403424981958e-02	1.374989728001017e-01	1.756134490741146e-02	8.380292506694094e-04
80                     	1.440873528818064e-02	1.850869112116798e-02	1.332117808068123e-01	1.723406034864916e-02	8.164943259449536e-04
81                     	1.421111712237726e-02	1.831658848001410e-02	1.325874432392361e-01	1.690458059560379e-02	8.054765992036160e-04
82                     	1.401574722802787e-02	1.808190385557663e-02	1.342977894913642e-01	1.659801694491293e-02	7.823949032114558e-04
83                     	1.384404270972585e-02	1.781426637790516e-02	1.371099646439926e-01	1.628912239174380e-02	7.687388988010260e-04
84                     	1.368430504972308e-02	1.753433921834443e-02	1.346306688983910e-01	1.595573461932186e-02	7.475908105009552e-04
85                     	1.350555350276785e-02	1.729288174998357e-02	1.349384558229791e-01	1.562638659968902e-02	7.361515674309734e-04
86                     	1.332002896554077e-02	1.703101500241335e-02	1.340581920463974e-01	1.528087063549262e-02	7.230969350765618e-04
87                     	1.316086021173743e-02	1.681408253745326e-02	1.314664134221131e-01	1.493607421874742e-02	7.099812471827452e-04
88                     	1.298435424403750e-02	1.663056543002903e-02	1.270388776735762e-01	1.461275798279096e-02	6.968623282611901e-04
89                     	1.279991639590122e-02	1.646384724440539e-02	1.245398864018737e-01	1.428083827457294e-02	6.830410612227770e-04
90                     	1.262542517548857e-02	1.623889893132448e-02	1.257295349208739e-01	1.399360909272416e-02	6.716623985816864e-04
91                     	1.246886550159669e-02	1.599708319598546e-02	1.288743190575352e-01	1.369970786412333e-02	6.594514723340091e-04
92                     	1.231436750922574e-02	1.573889863351219e-02	1.289508809169386e-01	1.344673882226560e-02	6.501193318058652e-04
93                     	1.215853858088395e-02	1.550651087574567e-02	1.268599082784105e-01	1.320865630036435e-02	6.409276164791734e-04
94                     	1.200578025342640e-02	1.528546900972393e-02	1.245258226666862e-01	1.296838958571553e-02	6.309181455083858e-04
95                     	1.187315565276187e-02	1.507363925640643e-02	1.234697535115486e-01	1.274329854724838e-02	6.224948866790227e-04
96                     	1.174411289348394e-02	1.489573513279216e-02	1.208427782274841e-01	1.256216571948875e-02	6.106541394710520e-04
97                     	1.161291300036248e-02	1.470883768360703e-02	1.198754891194879e-01	1.239136373384933e-02	6.015985536875164e-04
98                     	1.146498856722489e-02	1.449606287685511e-02	1.174154701542390e-01	1.222999468615563e-02	5.871726859658479e-04
99                     	1.131608771823984e-02	1.429468428603787e-02	1.182702883423522e-01	1.210343071321998e-02	5.759802291516711e-04
100                    	1.118471994724504e-02	1.410828195892434e-02	1.204112249103219e-01	1.200564274526098e-02	5.684745681706038e-04
101                    	1.107252720881024e-02	1.393259689872895e-02	1.203825128611527e-01	1.189909631740359e-02	5.653201446588866e-04
102                    	1.096662616363250e-02	1.374360875013078e-02	1.179399373077572e-01	1.179028795336468e-02	5.566312592564090e-04
103                    	1.084844415434886e-02	1.354793603381295e-02	1.138929506805853e-01	1.169313085549023e-02	5.423185252191350e-04
104                    	1.072119632393421e-02	1.336561830701948e-02	1.130148993801024e-01	1.158727978828432e-02	5.339060036825936e-04
105                    	1.059504669979708e-02	1.320856893616060e-02	1.130506834564531e-01	1.147274899682348e-02	5.224140504847680e-04
106                    	1.047482247406859e-02	1.306978002576728e-02	1.118098301743546e-01	1.137383959087117e-02	5.111218424979565e-04
107                    	1.036037845870758e-02	1.294700892214447e-02	1.106624511121580e-01	1.128372743609244e-02	5.012462503442630e-04
108                    	1.025517464869355e-02	1.282511761648971e-02	1.091174772993308e-01	1.118646122545625e-02	4.901911069016714e-04
109                    	1.015045685186052e-02	1.268936276885764e-02	1.083651640511084e-01	1.109261664715455e-02	4.803576873743806e-04
110                    	1.004540602370918e-02	1.253649193891733e-02	1.073250983245296e-01	1.099958880635263e-02	4.628084502716456e-04
111                    	9.944356666820411e-03	1.239780223069009e-02	1.059152790686746e-01	1.092711451701519e-02	4.487400275129716e-04
112                    	9.848926136243372e-03	1.226853657425826e-02	1.048508367896519e-01	1.085762981809020e-02	4.352912526703921e-04
113                    	9.755612054382145e-03	1.216078108677225e-02	1.032123943609886e-01	1.081115424106448e-02	4.259199613499899e-04
114                    	9.666248303080207e-03	1.207043067513128e-02	1.024138234021848e-01	1.077696816598306e-02	4.146068930547988e-04
115                    	9.579153861919661e-03	1.197303659439417e-02	1.010570610322694e-01	1.074211246133152e-02	4.042869958987248e-04
116                    	9.490640813093219e-03	1.187785068525063e-02	9.869540915834160e-02	1.071567638908575e-02	3.953812342527725e-04
117                    	9.407149224571658e-03	1.180048427046349e-02	9.668564789107881e-02	1.069618980678777e-02	3.860134331371196e-04
118                    	9.323326951593221e-03	1.173612467130532e-02	9.545423625550059e-02	1.067609223522981e-02	3.748708579158878e-04
119                    	9.239352610356050e-03	1.167092007111125e-02	9.602517573837945e-02	1.067387322395527e-02	3.780592655271160e-04
120                    	9.155360769780461e-03	1.159559400128617e-02	9.753401714846559e-02	1.070095737335990e-02	3.700786407181880e-04
121                    	9.073278303010532e-03	1.152185575459729e-02	9.796480212636201e-02	1.072352563407729e-02	3.539652629378458e-04
122                    	8.991733865569672e-03	1.145507166330409e-02	9.668270841718966e-02	1.074784696574534e-02	3.429324466160957e-04
123                    	8.912455741316425e-03	1.141412911705853e-02	9.221194291609254e-02	1.076909258078517e-02	3.338797389292548e-04
124                    	8.833592659619945e-03	1.139436459301311e-02	8.825748988278698e-02	1.080055730080296e-02	3.271869748249792e-04
125                    	8.751422290459292e-03	1.136234186920126e-02	8.731004398079814e-02	1.083978376995333e-02	3.223416673092117e-04
126                    	8.675144261153333e-03	1.131956727726351e-02	8.755301826345008e-02	1.088076004630412e-02	3.174075107662711e-04
127                    	8.600959096424363e-03	1.127838659777943e-02	8.724467578933652e-02	1.091299981567522e-02	3.131067764110701e-04
128                    	8.529654141949112e-03	1.123549700689588e-02	8.601204044212109e-02	1.094084937678837e-02	3.077553454448837e-04
129                    	8.465352885616536e-03	1.118718044391497e-02	8.408337681329922e-02	1.096189919114476e-02	3.038790666296426e-04
130                    	8.400490764641383e-03	1.113122234503658e-02	8.173987265629883e-02	1.099564915934773e-02	3.009978610487517e-04
131                    	8.336446643691696e-03	1.106285078675502e-02	7.912684605895318e-02	1.100592944991162e-02	2.965181138809796e-04
132                    	8.266814370870030e-03	1.101303332195585e-02	7.713795167227579e-02	1.099335166781740e-02	2.938040156604490e-04
133                    	8.194156802256412e-03	1.096482481530713e-02	7.551729378741519e-02	1.097748011789286e-02	2.886441182453847e-04
134                    	8.121756491631224e-03	1.091930106532447e-02	7.386419819029598e-02	1.097699291989597e-02	2.838641691962606e-04
135                    	8.051320919406572e-03	1.085965021284376e-02	7.320947395443664e-02	1.098880932382148e-02	2.789184309950993e-04
136                    	7.983551816189132e-03	1.080215693428075e-02	7.294418610796416e-02	1.100473542214042e-02	2.752828953732845e-04
137                    	7.915510928874757e-03	1.075379424902138e-02	7.261130748632774e-02	1.101736823389592e-02	2.704686386383210e-04
138                    	7.840697501148642e-03	1.070619608168296e-02	7.219953705933620e-02	1.099500754250803e-02	2.701336364526602e-04
139                    	7.763937175668686e-03	1.065604937972845e-02	7.155688575121759e-02	1.098895575392029e-02	2.685681749841514e-04
140                    	7.686827116835849e-03	1.060461179403318e-02	7.081581413384380e-02	1.100623507396013e-02	2.662472559802759e-04
141                    	7.609657682047580e-03	1.056047208443514e-02	6.960205189340428e-02	1.104618536219158e-02	2.625531702190802e-04
142                    	7.529520906334246e-03	1.052597751289862e-02	6.826023199853523e-02	1.106427739444621e-02	2.576566945527584e-04
143                    	7.450506892289844e-03	1.049572111218162e-02	6.752041692964265e-02	1.104461811766575e-02	2.535927662657307e-04
144                    	7.371285596391286e-03	1.044872505233048e-02	6.653618196629493e-02	1.102580048784661e-02	2.504451977645287e-04
145                    	7.292205629331479e-03	1.039060779783472e-02	6.541072581464687e-02	1.102643358890280e-02	2.480723716338776e-04
146                    	7.209061027273124e-03	1.032901289180876e-02	6.463953800656293e-02	1.107056828113890e-02	2.447235745869116e-04
147                    	7.127488951303628e-03	1.027015052234792e-02	6.362867560979246e-02	1.110651882509853e-02	2.412959879716647e-04
148                    	7.044971563432377e-03	1.022103797802813e-02	6.320906080595656e-02	1.110855672163455e-02	2.374097757388770e-04
149                    	6.963218713131908e-03	1.017807384050641e-02	6.303411882698083e-02	1.109701497669597e-02	2.342814594795715e-04
150                    	6.877775646637949e-03	1.013344447674566e-02	6.304946721962655e-02	1.107337859352630e-02	2.315868890314692e-04
151                    	6.793730499544939e-03	1.008038704983762e-02	6.254434375997292e-02	1.107019602636184e-02	2.291877195052026e-04
152                    	6.706556434252692e-03	1.002210452094637e-02	6.191506271223705e-02	1.106844066400767e-02	2.220260411507696e-04
153                    	6.618352710006627e-03	9.962179256790571e-03	6.175601236905038e-02	1.108762117833556e-02	2.163123296509790e-04
154                    	6.534556504133151e-03	9.895325050886030e-03	6.135710193859526e-02	1.109933353632855e-02	2.110515385415798e-04
155                    	6.455424631424247e-03	9.827394487793514e-03	6.096766044727108e-02	1.109941370767721e-02	2.058485466429907e-04
156                    	6.373739011127355e-03	9.762518225373268e-03	6.098386688529880e-02	1.108236107360459e-02	2.002014879351735e-04
157                    	6.295374294246228e-03	9.701800523436992e-03	6.042930112047656e-02	1.109458242509158e-02	1.954016892934602e-04
158                    	6.216584079975198e-03	9.639991680172559e-03	5.937414010129245e-02	1.112070701624405e-02	1.901767706630019e-04
159                    	6.143127787361140e-03	9.583881946883803e-03	6.470386677538975e-02	1.115299222944840e-02	1.878742364662605e-04
160                    	6.146666006420742e-03	9.375437421343920e-03	6.355425949951143e-02	1.117159001407458e-02	1.840271655239116e-04
161                    	6.115348254270092e-03	9.236521879206545e-03	5.953068034723000e-02	1.117931953533301e-02	1.805168956188238e-04
162                    	6.039078627935948e-03	9.183297168279222e-03	5.781371036372659e-02	1.117421945959980e-02	1.774267980088660e-04
163                    	5.959317991739856e-03	9.143069874724507e-03	5.686610243629159e-02	1.116454441842949e-02	1.749715734885025e-04
164                    	5.891702722755568e-03	9.070838475084083e-03	5.629710888801970e-02	1.116291374410928e-02	1.730755483558623e-04
165                    	5.836908390017162e-03	8.988715249155932e-03	5.552510143167209e-02	1.117685128237650e-02	1.707613156394694e-04
166                    	5.787323004862722e-03	8.911445438722588e-03	5.521610884130134e-02	1.116924559529867e-02	1.678223816033538e-04
167                    	5.734087694619008e-03	8.840407398430533e-03	5.495239482525421e-02	1.113456100162036e-02	1.616923628596160e-04
168                    	5.681289320163646e-03	8.766955395001686e-03	5.407711834169225e-02	1.109695567799183e-02	1.602810617120265e-04
169                    	5.631673067359433e-03	8.685859609635863e-03	5.284530470292283e-02	1.105093634166244e-02	1.591276143574384e-04
170                    	5.584498337314999e-03	8.602342148547526e-03	5.205447335691097e-02	1.100534797277288e-02	1.568091471645732e-04
171                    	5.536794684937196e-03	8.524470376316986e-03	5.135620286421776e-02	1.098644287380208e-02	1.546285622849037e-04
172                    	5.491686815025603e-03	8.449989262088817e-03	5.064082412672947e-02	1.096031455793599e-02	1.525477109870624e-04
173                    	5.446083466761445e-03	8.372446123633711e-03	5.009477397890628e-02	1.092024102632483e-02	1.501053067722399e-04
174                    	5.404075887597751e-03	8.296156374667156e-03	4.951296125453360e-02	1.086164060649549e-02	1.478012045415025e-04
175                    	5.360745142162448e-03	8.221618578737494e-03	4.843246396460806e-02	1.079801449715002e-02	1.455350399301190e-04
176                    	5.319358932789934e-03	8.145779499051533e-03	4.747824861965190e-02	1.073535580507326e-02	1.437418755624109e-04
177                    	5.277000486597548e-03	8.069015550111565e-03	4.681134111144120e-02	1.069527214826268e-02	1.416675585083963e-04
178                    	5.239063778846411e-03	7.993360832171890e-03	4.615404886238591e-02	1.068272778991135e-02	1.393371748878349e-04
179                    	5.200691781385615e-03	7.922184635833770e-03	4.557744149619530e-02	1.065114550598246e-02	1.367627127428663e-04
180                    	5.164257152418804e-03	7.849343952183277e-03	4.491608453685057e-02	1.062067891378819e-02	1.347707165012472e-04
181                    	5.126107002649922e-03	7.779019190344710e-03	4.434036140533509e-02	1.059655947853464e-02	1.305938208293489e-04
182                    	5.089966481143432e-03	7.707379830048433e-03	4.381276512017180e-02	1.057611654123194e-02	1.304248038838473e-04
183                    	5.053366669209405e-03	7.637575235524008e-03	4.353322562848529e-02	1.055436016709910e-02	1.294646448725843e-04
184                    	5.017401941613104e-03	7.567775397920850e-03	4.318839155281661e-02	1.054332665213042e-02	1.288803207053063e-04
185                    	4.984249896802934e-03	7.501080507366083e-03	4.311351513645491e-02	1.052747991564890e-02	1.281800501748695e-04
186                    	4.950731093695897e-03	7.443501738394638e-03	4.286423835613869e-02	1.050372703296543e-02	1.276658079398172e-04
187                    	4.918742884846264e-03	7.385173880236122e-03	4.260166117594315e-02	1.046660480711579e-02	1.276204741671145e-04
188                    	4.884138350511637e-03	7.327841366125023e-03	4.243268956231849e-02	1.042576771410556e-02	1.276833669998107e-04
189                    	4.850279340919187e-03	7.269289315453793e-03	4.233959949275793e-02	1.038727973196125e-02	1.276366688891193e-04
190                    	4.817813282208792e-03	7.213103502489608e-03	4.215082548642878e-02	1.035802102391053e-02	1.278842795972110e-04
191                    	4.787336868234355e-03	7.158307635862994e-03	4.207748918959266e-02	1.032109949666360e-02	1.280053333388554e-04
192                    	4.757112662037702e-03	7.113156955168985e-03	4.197451427802002e-02	1.027249581770317e-02	1.280454364375994e-04
193                    	4.727452511982382e-03	7.069063452788044e-03	4.201285388042831e-02	1.021950403796188e-02	1.280645410752382e-04
194                    	4.696598039895241e-03	7.024388344905231e-03	4.198866316621293e-02	1.016986322153458e-02	1.283330325414050e-04
195                    	4.664092133097076e-03	6.981323411282276e-03	4.172890156090715e-02	1.011814733628436e-02	1.286720962209469e-04
196                    	4.631694027171489e-03	6.939923396010100e-03	4.146157759274639e-02	1.005274850727402e-02	1.289179441667274e-04
197                    	4.600468821879698e-03	6.899874512069918e-03	4.097135459701311e-02	9.981547716181384e-03	1.288973141340648e-04
198                    	4.570647059734871e-03	6.867817349840272e-03	4.085407585387438e-02	9.906565871715718e-03	1.290348374651898e-04
199                    	4.541720302636700e-03	6.837822458138741e-03	4.073411401320304e-02	9.839974276981016e-03	1.289004924027628e-04
200                    	4.512978782371212e-03	6.809761880956906e-03	4.065957141571468e-02	9.771013671277314e-03	1.287769106347583e-04
201                    	4.482981552950646e-03	6.781755301125594e-03	4.043253269279565e-02	9.698225004049847e-03	1.289265856339654e-04
202                    	4.452680879036344e-03	6.755864901208422e-03	3.998529689438898e-02	9.624527623769207e-03	1.292062812892096e-04
203                    	4.423780589313204e-03	6.731741597202223e-03	3.971943453437766e-02	9.547428831061041e-03	1.294772520159255e-04
204                    	4.396106809170489e-03	6.709329637963328e-03	3.997500411570210e-02	9.465336842053503e-03	1.295780296650471e-04
205                    	4.369418233785556e-03	6.691805272417459e-03	4.073038685685822e-02	9.388264309277640e-03	1.291543803869071e-04
206                    	4.344215148755550e-03	6.674997094608515e-03	4.116203278459644e-02	9.302413078354787e-03	1.289538794652025e-04
207                    	4.318575696464062e-03	6.658816061923004e-03	4.081836642808981e-02	9.215057322221273e-03	1.291494367349261e-04
208                    	4.292108545890136e-03	6.643796568944038e-03	3.994708807342288e-02	9.116466733030603e-03	1.292754033777321e-04
209                    	4.266074135297187e-03	6.629237440990303e-03	3.917535441473632e-02	9.018279339030938e-03	1.288292460233413e-04
210                    	4.241190645590575e-03	6.614668292794207e-03	3.928624319574238e-02	8.921922837998525e-03	1.287415541106418e-04
211                    	4.217809281977128e-03	6.601291385352395e-03	3.975362431678236e-02	8.819195056359126e-03	1.285029616651595e-04
212                    	4.194363888042048e-03	6.589975994119155e-03	3.980055955493383e-02	8.708536528096876e-03	1.278591206900406e-04
213                    	4.171649924414792e-03	6.578855549859559e-03	3.923209457221322e-02	8.596742917950553e-03	1.273814291178475e-04
214                    	4.149257539271182e-03	6.570428038786044e-03	3.847968087017489e-02	8.493361725535218e-03	1.269568123461535e-04
215                    	4.126733619187123e-03	6.562619849907766e-03	3.777841012093270e-02	8.391522569202711e-03	1.266643791150685e-04
216                    	4.104207209451202e-03	6.554941622420355e-03	3.779445323656609e-02	8.288118111857425e-03	1.260211437112571e-04
217                    	4.082439602330417e-03	6.549392080014662e-03	3.795783418992811e-02	8.177348929504931e-03	1.258127689709126e-04
218                    	4.061675614822442e-03	6.544167688916846e-03	3.765126980125140e-02	8.063908260395863e-03	1.251691441576496e-04
219                    	4.042463693514966e-03	6.541199240800845e-03	3.709217269580911e-02	7.946448917625705e-03	1.249738564809273e-04
220                    	4.024245941793433e-03	6.537156854527919e-03	3.637178793730860e-02	7.828456799266642e-03	1.241999550507166e-04
221                    	4.005685092362325e-03	6.532934317729728e-03	3.576762930777234e-02	7.711066797725338e-03	1.237832213507550e-04
222                    	3.986641134127625e-03	6.529656003815402e-03	3.535619931935605e-02	7.593677650330466e-03	1.231791704201300e-04