1.00000000000453e-06 	1.00195556483898 	0 	0.88422661851298 	0.00150664906929813 	1587.47750974212
1.00000000000453e-06 	1.00593833258374 	0 	0.884309033553693 	0.00755829597313805 	752.202207112468
1.00000000000453e-06 	1.01006700077429 	0 	0.884525711925045 	0.017643848278838 	223.255458839064
1.00000000000453e-06 	1.0143469141712 	0 	0.884920850865948 	0.0272269485804238 	113.609177970794
1.00000000000453e-06 	1.01878361332929 	0 	0.885488568705058 	0.0344255817355446 	71.0724422577516
1.00000000000453e-06 	1.02338284177015 	-3.46944695195361e-18 	0.886208597787825 	0.0403246913414026 	49.7580930433937
1.00000000000453e-06 	1.02815055341735 	-6.93889390390723e-18 	0.887069702937499 	0.0455307157892813 	37.4988237370379
1.00000000000453e-06 	1.03309292030413 	-6.93889390390723e-18 	0.888059303053589 	0.0502213198757049 	29.7110321784321
1.00000000000453e-06 	1.03821634056339 	-6.93889390390723e-18 	0.889165701732121 	0.0544686931052029 	24.3775989278349
1.00000000000453e-06 	1.04352744671036 	-1.04083408558608e-17 	0.890381931860056 	0.0583234274759558 	20.5130577122341
1.00000000000453e-06 	1.04903311422874 	-1.04083408558608e-17 	0.891704674910764 	0.0618295424063434 	17.5912977454775
1.00000000000453e-06 	1.05474047047132 	-6.93889390390723e-18 	0.893132598967823 	0.0650262564029005 	15.3093755652904
1.00000000000453e-06 	1.06065690388671 	-3.46944695195361e-18 	0.89466543527311 	0.0679480617537666 	13.4814714435728
1.00000000000453e-06 	1.06679007358401 	-3.46944695195361e-18 	0.896303470436646 	0.0706249214755739 	11.9874791130457
1.00000000000453e-06 	1.07314791924792 	-6.93889390390723e-18 	0.898047222130271 	0.0730826721177325 	10.7463203231598
1.00000000000453e-06 	1.07973867141705 	-3.46944695195361e-18 	0.899897227218697 	0.0753435124187338 	9.70124399565641
1.00000000000453e-06 	1.08657086213875 	0 	0.901853903134153 	0.077426492044398 	8.81129993826369
1.00000000000453e-06 	1.09365333601424 	0 	0.90391745436301 	0.0793479590392882 	8.04616868677832
1.00000000000453e-06 	1.10099526164836 	3.46944695195361e-18 	0.906087807312675 	0.0811219514931299 	7.38290304258888
1.00000000000453e-06 	1.10860614351884 	6.93889390390723e-18 	0.908364564204865 	0.0827605323263595 	6.80380419136819
1.00000000000453e-06 	1.11649583428022 	3.46944695195361e-18 	0.91074697052111 	0.0842740719029521 	6.29499596652149
1.00000000000453e-06 	1.12467454751866 	6.93889390390723e-18 	0.913233892670625 	0.0856714851506852 	5.84544264415204
1.00000000000453e-06 	1.13315287097387 	1.73472347597681e-17 	0.915823803804337 	0.0869604300609614 	5.44625661587062
1.00000000000453e-06 	1.1419417802455 	2.08166817117217e-17 	0.918514776450625 	0.0881474739044786 	5.09020035164754
1.00000000000453e-06 	1.15105265300152 	1.38777878078145e-17 	0.921304481128192 	0.0892382327206169 	4.77132153462521
1.00000000000453e-06 	1.1604972837072 	1.04083408558608e-17 	0.9241901903493 	0.0902374887877681 	4.48468133808624
1.00000000000453e-06 	1.17028789889366 	1.38777878078145e-17 	0.927168787531349 	0.0911492899633338 	4.22614906728147
1.00000000000453e-06 	1.1804371729856 	1.73472347597681e-17 	0.930236780483519 	0.0919770340972733 	3.99224488444016
1.00000000000453e-06 	1.19095824470904 	2.42861286636753e-17 	0.933390319304713 	0.092723541176209 	3.78001788761769
1.00000000000453e-06 	1.20186473410003 	2.42861286636753e-17 	0.936625218598244 	0.0933911154008931 	3.58695052691821
1.00000000000453e-06 	1.21317076013637 	2.08166817117217e-17 	0.939936983879709 	0.0939815990169803 	3.41088287710272
1.00000000000453e-06 	1.22489095901542 	2.08166817117217e-17 	0.943320841949514 	0.0944964193990473 	3.24995204837915
1.00000000000453e-06 	1.23704050310128 	2.08166817117217e-17 	0.946771774851618 	0.0949366306243474 	3.10254326204027
1.00000000000453e-06 	1.24963512056619 	2.42861286636753e-17 	0.950284556859342 	0.0953029505594806 	2.96725000858784
1.00000000000453e-06 	1.26269111575139 	2.77555756156289e-17 	0.953853793738543 	0.0955957943131606 	2.84284135070497
1.00000000000453e-06 	1.27622539027388 	2.77555756156289e-17 	0.957473963359471 	0.0958153047747337 	2.7282349039756
1.00000000000453e-06 	1.29025546490643 	2.77555756156289e-17 	0.961139456595475 	0.0959613808552201 	2.6224743742036
1.00000000000453e-06 	1.30479950225895 	2.77555756156289e-17 	0.964844617459087 	0.0960337039715926 	2.52471078762089
1.00000000000453e-06 	1.31987633029101 	3.12250225675825e-17 	0.968583781667003 	0.096031763263332 	2.43418674773143
1.00000000000453e-06 	1.33550546668544 	3.81639164714898e-17 	0.972351313326807 	0.0959548799970542 	2.35022320994362
1.00000000000453e-06 	1.35170714411495 	3.81639164714898e-17 	0.976141639547169 	0.0958022315721342 	2.27220838261631
1.00000000000453e-06 	1.3685023364343 	3.81639164714898e-17 	0.97994928208432 	0.0955728754629574 	2.19958843936945
1.00000000000453e-06 	1.38591278583198 	4.16333634234434e-17 	0.983768884357781 	0.0952657733605203 	2.1318597879359
1.00000000000453e-06 	1.40396103097652 	4.16333634234434e-17 	0.987595232287466 	0.0948798157509688 	2.06856269441558
1.00000000000453e-06 	1.42267043619387 	3.81639164714898e-17 	0.991423268818283 	0.094413847159362 	2.00927609051321
1.00000000000453e-06 	1.44206522171365 	3.12250225675825e-17 	0.995248103366781 	0.093866692238336 	1.95361340222927
1.00000000000453e-06 	1.46217049502345 	3.12250225675825e-17 	0.999065017523996 	0.0932371827661683 	1.90121924847411
1.00000000000453e-06 	1.48301228337162 	2.77555756156289e-17 	1.00286946762678 	0.0925241854534884 	1.85176687107776
1.00000000000453e-06 	1.50461756746086 	2.42861286636753e-17 	1.00665708440678 	0.0917266303125915 	1.80495617900097
1.00000000000453e-06 	1.52701431637603 	2.77555756156289e-17 	1.0104236702896 	0.090843539265248 	1.76051231729062
1.00000000000453e-06 	1.55023152379144 	3.46944695195361e-17 	1.01416519534944 	0.0898740546254507 	1.71818469162991
1.00000000000453e-06 	1.57429924550461 	3.81639164714898e-17 	1.01787779285874 	0.0888174670582039 	1.67774638825527
1.00000000000453e-06 	1.59924863834497 	3.46944695195361e-17 	1.02155775502535 	0.0876732425857562 	1.63899393482996
1.00000000000453e-06 	1.62511200050782 	4.16333634234434e-17 	1.02520152921171 	0.0864410482006697 	1.60174735650839
1.00000000000453e-06 	1.65192281336593 	4.5102810375397e-17 	1.02880571472468 	0.0851207756540567 	1.56585049353865
1.00000000000453e-06 	1.67971578481283 	3.81639164714898e-17 	1.0323670601216 	0.0837125630133522 	1.53117156167835
1.00000000000453e-06 	1.70852689419381 	3.81639164714898e-17 	1.03588246090593 	0.0822168136076014 	1.49760395410877
1.00000000000453e-06 	1.73839343888296 	4.16333634234434e-17 	1.0393489572015 	0.0806342119778009 	1.46506730366018
1.00000000000453e-06 	1.76935408256639 	4.5102810375397e-17 	1.04276373169258 	0.0789657364277824 	1.43350884764466
1.00000000000453e-06 	1.80144890529426 	4.85722573273506e-17 	1.04612411578492 	0.0772126676819513 	1.4029051646322
1.00000000000453e-06 	1.83471945536634 	4.85722573273506e-17 	1.04942760805503 	0.075376592802885 	1.37326438597574
1.00000000000453e-06 	1.86920880311829 	4.5102810375397e-17 	1.05267170203542 	0.0734594014721838 	1.34462902593175
1.00000000000453e-06 	1.9049615966783 	5.20417042793042e-17 	1.05585368078306 	0.0714632619127651 	1.31707966343299
1.00000000000453e-06 	1.94202411976624 	5.8702771376512e-17 	1.05897109653491 	0.0693902971556212 	1.29072761704138
1.00000000001227e-06 	1.98044435161019 	1.38777878078145e-17 	1.06202147441768 	0.0672429147678849 	1.2657184610664
1.00000000001227e-06 	2.02024009608346 	1.38777878078145e-17 	1.0649779230306 	0.065044333871326 	1.24246243079156
1.00000000001227e-06 	2.06000503604194 	6.93889390390723e-18 	1.06776873428851 	0.0628587034135674 	1.22173104616478
1.00000000001227e-06 	2.09836474743797 	0 	1.07033568650716 	0.0607468475139976 	1.20407048632306
1.00000000001227e-06 	2.13536888877258 	0 	1.07267950398553 	0.0587260541795821 	1.18949594935235
1.00000000001227e-06 	2.17106536369585 	3.46944695195361e-18 	1.07482437839981 	0.0567936681265765 	1.17785292069786
1.00000000001227e-06 	2.20550038302045 	3.46944695195361e-18 	1.07679162530908 	0.054946530576246 	1.16901578616604
1.00000000001227e-06 	2.23871852454379 	-6.93889390390723e-18 	1.07859955638486 	0.0531811762761725 	1.1628834952027
1.00000000001227e-06 	2.27076279075614 	-1.38777878078145e-17 	1.08026410549303 	0.0514939748894011 	1.15937652652382
1.00000000001227e-06 	2.30167466450941 	-1.38777878078145e-17 	1.08179921633659 	0.0498812340419664 	1.15843481794858
1.00000000001227e-06 	2.33149416271873 	-1.04083408558608e-17 	1.08321713145839 	0.0483392746152878 	1.16001639561981
1.00000000001227e-06 	2.36025988816627 	-1.04083408558608e-17 	1.08452863805009 	0.0468644852531665 	1.16409651107658
1.00000000001227e-06 	2.38800907947441 	-1.38777878078145e-17 	1.08574327499159 	0.0454533610618892 	1.17066715631067
1.00000000001227e-06 	2.41477765931296 	-1.38777878078145e-17 	1.0868695061093 	0.0441025302090563 	1.1797368734922
1.00000000001227e-06 	2.44060028090273 	-1.38777878078145e-17 	1.08791486588534 	0.0428087712462823 	1.1913308095438
1.00000000001227e-06 	2.46551037287587 	-1.38777878078145e-17 	1.08888608259133 	0.0415690233416922 	1.20549098943644
1.00000000001227e-06 	2.48954018255081 	-1.38777878078145e-17 	1.08978918274321 	0.040380391128253 	1.22227679898494
1.00000000001227e-06 	2.512720817678 	-1.38777878078145e-17 	1.09062958003596 	0.0392401455047395 	1.24176568041481
1.00000000001227e-06 	2.53508228671037 	-1.38777878078145e-17 	1.09141215133814 	0.0381457214373552 	1.26405405383535
1.00000000001227e-06 	2.55665353765073 	-1.04083408558608e-17 	1.09214130185565 	0.0370947135820036 	1.28925848630887
1.00000000001227e-06 	2.57746249552637 	-1.04083408558608e-17 	1.09282102119586 	0.0360848703663007 	1.31751713845127
1.00000000001227e-06 	2.59753609853934 	-1.04083408558608e-17 	1.0934549317577 	0.035114087026794 	1.34899152723779
1.00000000001227e-06 	2.6169003329393 	-6.93889390390723e-18 	1.09404633062621 	0.0341803979830761 	1.38386865362329
1.00000000001227e-06 	2.6355802666639 	-1.38777878078145e-17 	1.09459822594899 	0.0332819688408108 	1.42236355540916
1.00000000001227e-06 	2.6536000817905 	-2.08166817117217e-17 	1.09511336860814 	0.0324170882455792 	1.46472236024563
1.00000000001227e-06 	2.67098310584103 	-2.08166817117217e-17 	1.09559427986704 	0.031584159755283 	1.51122593162753
1.00000000001227e-06 	2.68775184198057 	-2.77555756156289e-17 	1.09604327556138 	0.0307816938576899 	1.56219422330987
1.00000000001227e-06 	2.7039279981488 	-3.46944695195361e-17 	1.09646248731284 	0.0300083002292431 	1.61799148612587
1.00000000001227e-06 	2.71953251516198 	-3.46944695195361e-17 	1.0968538811693 	0.0292626803096172 	1.67903250754902
1.00000000001227e-06 	2.73458559382185 	-3.46944695195361e-17 	1.09721927401279 	0.0285436202521901 	1.74579011090032
1.00000000001227e-06 	2.74910672106653 	-3.46944695195361e-17 	1.09756034802497 	0.0278499843024462 	1.81880420106787
1.00000000001227e-06 	2.76311469519732 	-3.46944695195361e-17 	1.09787866345644 	0.0271807086534116 	1.89869272129948
1.00000000001227e-06 	2.776627650214 	-3.46944695195361e-17 	1.09817566991002 	0.0265347958288203 	1.9861649869218
1.00000000001227e-06 	2.78966307929018 	-3.46944695195361e-17 	1.09845271631722 	0.0259113096502797 	2.08203799478048
1.00000000001227e-06 	2.80223785741905 	-3.81639164714898e-17 	1.0987110597613 	0.0253093708537851 	2.18725648290808
1.00000000001227e-06 	2.81436826325886 	-4.5102810375397e-17 	1.09895187327814 	0.0247281534331737 	2.30291774892244
1.00000000001227e-06 	2.82607000020648 	-4.85722573273506e-17 	1.09917625274693 	0.0241668818031205 	2.4303025497733
1.00000000001227e-06 	2.83735821672614 	-5.55111512312578e-17 	1.09938522296669 	0.02362482889161 	2.57091383072213
1.00000000001227e-06 	2.8482475259599 	-6.24500451351651e-17 	1.09957974299975 	0.0231013152907114 	2.72652561242124
1.00000000001227e-06 	2.85875202464506 	-6.24500451351651e-17 	1.09976071085161 	0.0225957096136283 	2.89924516632786
1.00000000001227e-06 	2.86888531136304 	-6.24500451351651e-17 	1.09992896754482 	0.0221074302228996 	3.09159272537635
1.00000000001227e-06 	2.87866050414343 	-6.24500451351651e-17 	1.10008530063515 	0.021635948504676 	3.30660454984848
1.00000000001227e-06 	2.88809025744591 	-6.24500451351651e-17 	1.10023044720899 	0.0211807938585355 	3.547967409856
1.00000000001227e-06 	2.89718677854204 	-6.24500451351651e-17 	1.10036509639222 	0.0207415605354068 	3.82019577923072
1.00000000001227e-06 	2.90596184331819 	-6.24500451351651e-17 	1.10048989139277 	0.0203179163585634 	4.12886776131028
1.00000000001227e-06 	2.91442681151997 	-6.59194920871187e-17 	1.10060543108958 	0.0199096131508997 	4.48094277151132
1.00000000001227e-06 	2.92259264145801 	-6.93889390390723e-17 	1.10071227117118 	0.0195164982682208 	4.88519454191876
1.00000000001227e-06 	2.93046990419395 	-7.28583859910259e-17 	1.1008109248148 	0.0191385258247863 	5.3528091376104
1.00000000001227e-06 	2.93806879722526 	-7.63278329429795e-17 	1.10090186288138 	0.0187757646667357 	5.89822279095523
1.00000000001227e-06 	2.94539915768639 	-7.28583859910259e-17 	1.10098551358062 	0.0184283972975047 	6.54031427524082
1.00000000001227e-06 	2.95247047508335 	-6.93889390390723e-17 	1.10106226153065 	0.0180966986631023 	7.30413141914954
1.00000000001227e-06 	2.9592919035784 	-6.93889390390723e-17 	1.10113244609097 	0.0177809738499279 	8.22343957863316
1.00000000001227e-06 	2.96587227384056 	-6.93889390390723e-17 	1.10119635877422 	0.0174814153019036 	9.34456587014264
1.00000000001227e-06 	2.97222010447726 	-7.28583859910259e-17 	1.10125423945242 	0.0171978053024654 	10.73234413693
1.00000000001227e-06 	2.97834361306218 	-7.97972798949331e-17 	1.10130627099876 	0.0169289226446123 	12.4795807387354
1.00000000001227e-06 	2.98425072677325 	-7.97972798949331e-17 	1.10135257146676 	0.016671381730069 	14.7226631506528
1.00000000001227e-06 	2.98994909265478 	-7.63278329429795e-17 	1.10139318019539 	0.0164173693604812 	17.6684280922063
1.00000000001227e-06 	2.99544608751689 	-7.63278329429795e-17 	1.10142803274371 	0.016150193732706 	21.6429572478789
1.00000000001227e-06 	3.00074882748522 	-7.97972798949331e-17 	1.10145694196802 	0.0158353399279177 	27.1864815483123
1.00000000001227e-06 	3.00586417721304 	-8.67361737988404e-17 	1.10147958823939 	0.0154018594187523 	35.2545215511608
1.00000000001227e-06 	3.01079875876789 	-9.0205620750794e-17 	1.10149500011127 	0.0147019638826693 	47.6932712990255
1.00000000001227e-06 	3.01555896020418 	-9.0205620750794e-17 	1.10149932024479 	0.0134227029916696 	68.5367294809367
1.00000000001227e-06 	3.02015094383281 	-9.71445146547012e-17 	1.10148676241951 	0.010957165151163 	108.449952678225
1.00000000001227e-06 	3.02458065419862 	-1.00613961606655e-16 	1.10146082752068 	0.00693419285911473 	209.586243070377
1.00000000001227e-06 	3.02885382577583 	-1.04083408558608e-16 	1.1014372497784 	0.00277038185022317 	701.943420638505
