1.00000000000453e-06 	1.00195556483898 	0 	0.0650780718360015 	-0.000107504007295566 	-1.60086200720739e-22
1.00000000000453e-06 	1.00593833258374 	0 	0.211861708718867 	0.000214199942230919 	-2.83581682537353e-22
1.00000000000453e-06 	1.01006700077429 	0 	0.369485259356817 	0.00176885480099017 	-1.56257265054926e-22
1.00000000000453e-06 	1.0143469141712 	0 	0.498422195265729 	0.00428934463044956 	5.80810468534445e-23
1.00000000000453e-06 	1.01878361332929 	0 	0.584130674611368 	0.0070708225206279 	4.81622251865325e-23
1.00000000000453e-06 	1.02338284177015 	-3.46944695195361e-18 	0.636933705544923 	0.00975400241202358 	-8.52684260821896e-23
1.00000000000453e-06 	1.02815055341735 	-6.93889390390723e-18 	0.67002200547993 	0.0122351596838441 	-2.54726293840573e-24
1.00000000000453e-06 	1.03309292030413 	-6.93889390390723e-18 	0.691947023473731 	0.0145031959677492 	8.01633669217572e-23
1.00000000000453e-06 	1.03821634056339 	-6.93889390390723e-18 	0.707504919490358 	0.0165879742921082 	9.78316965471504e-24
1.00000000000453e-06 	1.04352744671036 	-1.04083408558608e-17 	0.719294406643872 	0.0185238919470922 	-8.5972114608321e-23
1.00000000000453e-06 	1.04903311422874 	-1.04083408558608e-17 	0.728750747816827 	0.0203399616942029 	-8.10432206912795e-23
1.00000000000453e-06 	1.05474047047132 	-6.93889390390723e-18 	0.736700782840748 	0.0220591429250066 	-2.53701159035487e-23
1.00000000000453e-06 	1.06065690388671 	-3.46944695195361e-18 	0.743643728379401 	0.0236992076115115 	3.13841650844206e-23
1.00000000000453e-06 	1.06679007358401 	-3.46944695195361e-18 	0.749894562766871 	0.0252737945965744 	6.27709510017663e-23
1.00000000000453e-06 	1.07314791924792 	-6.93889390390723e-18 	0.755659930493022 	0.0267933356624049 	4.52286130438862e-23
1.00000000000453e-06 	1.07973867141705 	-3.46944695195361e-18 	0.761080102959036 	0.0282657686074664 	6.78140406162046e-16
1.00000000000453e-06 	1.08657086213875 	0 	0.766253186831608 	0.0296970613038318 	7.25002954335455e-16
1.00000000000453e-06 	1.09365333601424 	0 	0.771249649935887 	0.031091594567003 	-5.84385171635272e-16
1.00000000000453e-06 	1.10099526164836 	3.46944695195361e-18 	0.776121350461506 	0.032452443083129 	-6.31247730314656e-16
1.00000000000453e-06 	1.10860614351884 	6.93889390390723e-18 	0.780907334088743 	0.03378158381187 	-1.73008067677044e-23
1.00000000000453e-06 	1.11649583428022 	3.46944695195361e-18 	0.785637670928804 	0.0350800556061048 	-5.8868103234438e-23
1.00000000000453e-06 	1.12467454751866 	6.93889390390723e-18 	0.790336067229839 	0.0363480872378942 	-3.96888758653688e-23
1.00000000000453e-06 	1.13315287097387 	1.73472347597681e-17 	0.795021688298753 	0.0375852049482136 	1.75718406935904e-23
1.00000000000453e-06 	1.1419417802455 	2.08166817117217e-17 	0.799710459341208 	0.0387903270123156 	2.64171311371047e-24
1.00000000000453e-06 	1.15105265300152 	1.38777878078145e-17 	0.804416011421193 	0.0399618503859333 	-4.80785538195987e-23
1.00000000000453e-06 	1.1604972837072 	1.04083408558608e-17 	0.809150379717253 	0.0410977327810379 	-4.91780244670973e-23
1.00000000000453e-06 	1.17028789889366 	1.38777878078145e-17 	0.813924524099612 	0.0421955723375649 	-1.67569161102083e-23
1.00000000000453e-06 	1.1804371729856 	1.73472347597681e-17 	0.818748718483751 	0.0432526861552864 	0
1.00000000000453e-06 	1.19095824470904 	2.42861286636753e-17 	0.823632840184913 	0.0442661881667633 	-2.95828843521502e-23
1.00000000000453e-06 	1.20186473410003 	2.42861286636753e-17 	0.828586580569937 	0.0452330660572107 	-5.9165737411798e-23
1.00000000000453e-06 	1.21317076013637 	2.08166817117217e-17 	0.833619591884752 	0.0461502561070982 	-2.95828530330297e-23
1.00000000000453e-06 	1.22489095901542 	2.08166817117217e-17 	0.838741581223362 	0.0470147140361158 	0
1.00000000000453e-06 	1.23704050310128 	2.08166817117217e-17 	0.843962359560091 	0.0478234801524883 	-1.41977487086888e-24
1.00000000000453e-06 	1.24963512056619 	2.42861286636753e-17 	0.849291848457658 	0.0485737387090594 	-2.84595283948929e-24
1.00000000000453e-06 	1.26269111575139 	2.77555756156289e-17 	0.854740042058982 	0.0492628713349909 	-1.41979755733449e-24
1.00000000000453e-06 	1.27622539027388 	2.77555756156289e-17 	0.860316925834919 	0.049888503798788 	0
1.00000000000453e-06 	1.29025546490643 	2.77555756156289e-17 	0.866032360670762 	0.050448548386354 	0
1.00000000000453e-06 	1.30479950225895 	2.77555756156289e-17 	0.871895938104914 	0.0509412459601095 	-6.43392363702073e-23
1.00000000000453e-06 	1.31987633029101 	3.12250225675825e-17 	0.877916804598923 	0.0513652084160864 	-6.16347372901401e-23
1.00000000000453e-06 	1.33550546668544 	3.81639164714898e-17 	0.884103448908113 	0.0517194581522183 	1.37939504494503e-22
1.00000000000453e-06 	1.35170714411495 	3.81639164714898e-17 	0.890463446981763 	0.0520034584817822 	2.71657697768033e-22
1.00000000000453e-06 	1.3685023364343 	3.81639164714898e-17 	0.897003161818573 	0.0522171279546481 	2.75371554887557e-22
1.00000000000453e-06 	1.38591278583198 	4.16333634234434e-17 	0.903727400268704 	0.0523608328610749 	2.09666373325247e-22
1.00000000000453e-06 	1.40396103097652 	4.16333634234434e-17 	0.910639034678041 	0.052435353784779 	7.07027857171468e-23
1.00000000000453e-06 	1.42267043619387 	3.81639164714898e-17 	0.91773860607121 	0.0524418235218431 	-2.98988358365964e-22
1.00000000000453e-06 	1.44206522171365 	3.12250225675825e-17 	0.92502393552877 	0.0523816383235476 	-5.98046595167562e-22
1.00000000000453e-06 	1.46217049502345 	3.12250225675825e-17 	0.932489774973664 	0.0522563504296569 	-2.99027385976053e-22
1.00000000000453e-06 	1.48301228337162 	2.77555756156289e-17 	0.940127525251654 	0.0520675521821111 	3.18598519914372e-22
1.00000000000453e-06 	1.50461756746086 	2.42861286636753e-17 	0.947925041816776 	0.0518167612541833 	8.00058007779595e-22
1.00000000000453e-06 	1.52701431637603 	2.77555756156289e-17 	0.955866540223781 	0.0515053147066651 	4.78240421012929e-22
1.00000000000453e-06 	1.55023152379144 	3.46944695195361e-17 	0.963932607178562 	0.0511342771152652 	-1.69235793748712e-22
1.00000000000453e-06 	1.57429924550461 	3.81639164714898e-17 	0.972100318953074 	0.0507043655254519 	-3.38672714817201e-22
1.00000000000453e-06 	1.59924863834497 	3.46944695195361e-17 	0.980343466974636 	0.0502158922334985 	-3.45438546041979e-22
1.00000000000453e-06 	1.62511200050782 	4.16333634234434e-17 	0.988632889169064 	0.0496687259536258 	-3.51635410788743e-22
1.00000000000453e-06 	1.65192281336593 	4.5102810375397e-17 	0.996936904404108 	0.0490622722163593 	3.71288878595991e-22
1.00000000000453e-06 	1.67971578481283 	3.81639164714898e-17 	1.00522184674122 	0.0483954739675996 	1.27961763945185e-21
1.00000000000453e-06 	1.70852689419381 	3.81639164714898e-17 	1.01345269623835 	0.0476668339730936 	7.29362629301197e-22
1.00000000000453e-06 	1.73839343888296 	4.16333634234434e-17 	1.02159380170107 	0.0468744611228932 	0
1.00000000000453e-06 	1.76935408256639 	4.5102810375397e-17 	1.02960968758892 	0.0460161407743044 	0
1.00000000000453e-06 	1.80144890529426 	4.85722573273506e-17 	1.03746593349737 	0.0450894255254311 	0
1.00000000000453e-06 	1.83471945536634 	4.85722573273506e-17 	1.04513010942918 	0.0440917401866651 	0
1.00000000000453e-06 	1.86920880311829 	4.5102810375397e-17 	1.05257273585351 	0.0430204986750706 	2.44208426827927e-24
1.00000000000453e-06 	1.9049615966783 	5.20417042793042e-17 	1.05976820005451 	0.04187326825886 	4.80030438917111e-24
1.00000000000453e-06 	1.94202411976624 	5.8702771376512e-17 	1.06669550273732 	0.0406478084943962 	2.44378088735226e-24
1.00000000001227e-06 	1.98044435161019 	1.38777878078145e-17 	1.07333834204048 	0.0393424171565054 	0
1.00000000001227e-06 	2.02024009608346 	1.38777878078145e-17 	1.07963342929441 	0.0379690153944897 	0
1.00000000001227e-06 	2.06000503604194 	6.93889390390723e-18 	1.08543452073518 	0.0365680233400275 	0
1.00000000001227e-06 	2.09836474743797 	0 	1.09064371965911 	0.0351822220314031 	0
1.00000000001227e-06 	2.13536888877258 	0 	1.09529237962772 	0.0338287881158254 	0
1.00000000001227e-06 	2.17106536369585 	3.46944695195361e-18 	1.09945213538974 	0.0325117374853847 	0
1.00000000001227e-06 	2.20550038302045 	3.46944695195361e-18 	1.1031817425286 	0.0312340580747738 	0
1.00000000001227e-06 	2.23871852454379 	-6.93889390390723e-18 	1.10652892284053 	0.029997777550824 	0
1.00000000001227e-06 	2.27076279075614 	-1.38777878078145e-17 	1.10953217678699 	0.0288040423910236 	0
1.00000000001227e-06 	2.30167466450941 	-1.38777878078145e-17 	1.11222240739425 	0.0276532636246567 	0
1.00000000001227e-06 	2.33149416271873 	-1.04083408558608e-17 	1.11462430309924 	0.0265452578242668 	0
1.00000000001227e-06 	2.36025988816627 	-1.04083408558608e-17 	1.11675747484959 	0.0254793772475274 	0
1.00000000001227e-06 	2.38800907947441 	-1.38777878078145e-17 	1.11863736500311 	0.0244546256760918 	0
1.00000000001227e-06 	2.41477765931296 	-1.38777878078145e-17 	1.12027595611608 	0.0234697571424513 	0
1.00000000001227e-06 	2.44060028090273 	-1.38777878078145e-17 	1.12168231098884 	0.022523357044424 	0
1.00000000001227e-06 	2.46551037287587 	-1.38777878078145e-17 	1.12286297425266 	0.0216139066892897 	0
1.00000000001227e-06 	2.48954018255081 	-1.38777878078145e-17 	1.12382226254242 	0.0207398331028172 	0
1.00000000001227e-06 	2.512720817678 	-1.38777878078145e-17 	1.12456246633291 	0.0198995462712402 	0
1.00000000001227e-06 	2.53508228671037 	-1.38777878078145e-17 	1.12508398265972 	0.0190914660150382 	0
1.00000000001227e-06 	2.55665353765073 	-1.04083408558608e-17 	1.12538539465706 	0.0183140405409905 	0
1.00000000001227e-06 	2.57746249552637 	-1.04083408558608e-17 	1.12546351134037 	0.0175657584742103 	0
1.00000000001227e-06 	2.59753609853934 	-1.04083408558608e-17 	1.12531337941905 	0.0168451558961259 	0
1.00000000001227e-06 	2.6169003329393 	-6.93889390390723e-18 	1.12492827813837 	0.0161508196454055 	0
1.00000000001227e-06 	2.6355802666639 	-1.38777878078145e-17 	1.12429970815798 	0.015481387897568 	0
1.00000000001227e-06 	2.6536000817905 	-2.08166817117217e-17 	1.12341738615984 	0.0148355488352067 	0
1.00000000001227e-06 	2.67098310584103 	-2.08166817117217e-17 	1.12226925804702 	0.0142120380570126 	0
1.00000000001227e-06 	2.68775184198057 	-2.77555756156289e-17 	1.12084154494155 	0.013609635248404 	0
1.00000000001227e-06 	2.7039279981488 	-3.46944695195361e-17 	1.11911883726476 	0.0130271605451984 	0
1.00000000001227e-06 	2.71953251516198 	-3.46944695195361e-17 	1.11708425236587 	0.012463470958275 	0
1.00000000001227e-06 	2.73458559382185 	-3.46944695195361e-17 	1.11471966968749 	0.0119174571841279 	0
1.00000000001227e-06 	2.74910672106653 	-3.46944695195361e-17 	1.11200605349355 	0.0113880410951491 	0
1.00000000001227e-06 	2.76311469519732 	-3.46944695195361e-17 	1.10892386604324 	0.0108741741755618 	0
1.00000000001227e-06 	2.776627650214 	-3.46944695195361e-17 	1.10545356348986 	0.0103748371358448 	0
1.00000000001227e-06 	2.78966307929018 	-3.46944695195361e-17 	1.10157615315923 	0.0098890408939508 	0
1.00000000001227e-06 	2.80223785741905 	-3.81639164714898e-17 	1.09727377561069 	0.00941582905276482 	0
1.00000000001227e-06 	2.81436826325886 	-4.5102810375397e-17 	1.09253026033102 	0.00895428193151389 	0
1.00000000001227e-06 	2.82607000020648 	-4.85722573273506e-17 	1.0873315929199 	0.00850352212957965 	0
1.00000000001227e-06 	2.83735821672614 	-5.55111512312578e-17 	1.08166622684086 	0.00806272152182036 	0
1.00000000001227e-06 	2.8482475259599 	-6.24500451351651e-17 	1.07552517574892 	0.00763110951204605 	0
1.00000000001227e-06 	2.85875202464506 	-6.24500451351651e-17 	1.06890183273904 	0.0072079823102285 	0
1.00000000001227e-06 	2.86888531136304 	-6.24500451351651e-17 	1.06179147824094 	0.00679271295142708 	0
1.00000000001227e-06 	2.87866050414343 	-6.24500451351651e-17 	1.05419045482756 	0.00638476174199473 	0
1.00000000001227e-06 	2.88809025744591 	-6.24500451351651e-17 	1.04609500039013 	0.00598368680585552 	0
1.00000000001227e-06 	2.89718677854204 	-6.24500451351651e-17 	1.03749973676504 	0.00558915441953339 	0
1.00000000001227e-06 	2.90596184331819 	-6.24500451351651e-17 	1.02839580562715 	0.00520094888159302 	0
1.00000000001227e-06 	2.91442681151997 	-6.59194920871187e-17 	1.01876862470192 	0.00481898177205969 	0
1.00000000001227e-06 	2.92259264145801 	-6.93889390390723e-17 	1.0085952025585 	0.00444330062622303 	0
1.00000000001227e-06 	2.93046990419395 	-7.28583859910259e-17 	0.997840895749825 	0.00407409727158228 	0
1.00000000001227e-06 	2.93806879722526 	-7.63278329429795e-17 	0.986455411402995 	0.00371171634407472 	0
1.00000000001227e-06 	2.94539915768639 	-7.28583859910259e-17 	0.974367739984617 	0.00335666478776168 	0
1.00000000001227e-06 	2.95247047508335 	-6.93889390390723e-17 	0.961479526649984 	0.00300962339367355 	0
1.00000000001227e-06 	2.9592919035784 	-6.93889390390723e-17 	0.94765612028943 	0.00267146156966294 	0
1.00000000001227e-06 	2.96587227384056 	-6.93889390390723e-17 	0.93271411608389 	0.00234325694419493 	0
1.00000000001227e-06 	2.97222010447726 	-7.28583859910259e-17 	0.916403521949661 	0.00202632295687887 	0
1.00000000001227e-06 	2.97834361306218 	-7.97972798949331e-17 	0.898381535260971 	0.00172224208586686 	0
1.00000000001227e-06 	2.98425072677325 	-7.97972798949331e-17 	0.87817294554872 	0.00143285595907385 	0
1.00000000001227e-06 	2.98994909265478 	-7.63278329429795e-17 	0.855108676287029 	0.00116026729925815 	0
1.00000000001227e-06 	2.99544608751689 	-7.63278329429795e-17 	0.82818719843268 	0.000907422321926005 	0
1.00000000001227e-06 	3.00074882748522 	-7.97972798949331e-17 	0.795808177804718 	0.000678419538970298 	0
1.00000000001227e-06 	3.00586417721304 	-8.67361737988404e-17 	0.755478132145967 	0.000478350754412232 	0
1.00000000001227e-06 	3.01079875876789 	-9.0205620750794e-17 	0.703507851327623 	0.000312549567693787 	0
1.00000000001227e-06 	3.01555896020418 	-9.0205620750794e-17 	0.634505795269041 	0.000183920077225821 	0
1.00000000001227e-06 	3.02015094383281 	-9.71445146547012e-17 	0.540703250674218 	9.17938755155482e-05 	0
1.00000000001227e-06 	3.02458065419862 	-1.00613961606655e-16 	0.414943472487384 	3.36587334638964e-05 	0
1.00000000001227e-06 	3.02885382577583 	-1.04083408558608e-16 	0.259944335773979 	5.65209038392053e-06 	0
