4 	0.00391112967796274 	3.46944695195361e-18 	1.07873881493187 	0.000107193970874951 	441.407362376873
4 	0.0118766651674915 	3.46944695195361e-18 	1.07873410179502 	0.000978684483566588 	129.007471614284
4 	0.020134001548576 	0 	1.07871776242145 	0.00344581778652601 	33.3852380580597
4 	0.028693828342395 	1.04083408558608e-17 	1.0786791768709 	0.00622378352011234 	15.2746236007024
4 	0.0375672266585909 	1.73472347597681e-17 	1.07861647654542 	0.00855047073662879 	9.52846927150478
4 	0.0467656835403033 	2.08166817117217e-17 	1.07853612024672 	0.010467858148021 	6.9779397142549
4 	0.0563011068347006 	2.08166817117217e-17 	1.07844405070578 	0.0121192245891366 	5.56658523096775
4 	0.0661858406082648 	2.42861286636753e-17 	1.07834331724034 	0.0135962331019354 	4.67489779828195
4 	0.0764326811267816 	2.77555756156289e-17 	1.07823568929562 	0.0149535723277642 	4.06245411566886
4 	0.0870548934207257 	2.77555756156289e-17 	1.0781225564639 	0.0162256950862865 	3.61758679513761
4 	0.0980662284574838 	3.12250225675825e-17 	1.07800509653304 	0.0174356937176008 	3.28151496959231
4 	0.109480940942647 	3.12250225675825e-17 	1.07788433113501 	0.0185999001016528 	3.02036631433981
4 	0.121313807773416 	2.42861286636753e-17 	1.07776117925027 	0.019730395402325 	2.81324975242019
4 	0.13358014716801 	2.08166817117217e-17 	1.07763649209927 	0.0208364595968084 	2.64658506690339
4 	0.146295838495838 	2.77555756156289e-17 	1.07751107209952 	0.0219254519418641 	2.51116967776696
4 	0.159477342834115 	3.46944695195361e-17 	1.07738568372109 	0.0230033686401788 	2.40055590955753
4 	0.173141724277517 	3.46944695195361e-17 	1.07726106005215 	0.0240752079537117 	2.31010281434551
4 	0.18730667202848 	3.12250225675825e-17 	1.07713790677603 	0.0251452150603741 	2.23639645034641
4 	0.201990523296728 	3.46944695195361e-17 	1.07701690467222 	0.0262170484706832 	2.17688164071629
4 	0.217212287037676 	4.16333634234434e-17 	1.07689871147545 	0.0272938930107713 	2.1296203140413
4 	0.232991668560441 	4.16333634234434e-17 	1.07678396373768 	0.0283785346957208 	2.09312838099172
4 	0.249349095037321 	4.85722573273506e-17 	1.07667327922663 	0.029473407010588 	2.06626287120432
4 	0.266305741947753 	5.20417042793042e-17 	1.0765672603348 	0.0305806144969518 	2.04814210808376
4 	0.283883560490999 	5.20417042793042e-17 	1.07646649893737 	0.0317019371984812 	2.03808810565292
4 	0.30210530600303 	4.85722573273506e-17 	1.0763715831113 	0.0328388179399969 	2.03558420204062
4 	0.320994567414414 	5.55111512312578e-17 	1.0762831061159 	0.0339923333068809 	2.04024329584378
4 	0.340575797787321 	6.93889390390723e-17 	1.07620167804023 	0.0351631483814196 	2.05178352588271
4 	0.360874345971201 	7.28583859910259e-17 	1.07612794030313 	0.0363514546741426 	2.07000917082847
4 	0.381916489418091 	7.97972798949331e-17 	1.07606258224859 	0.0375568901945008 	2.09479513750511
4 	0.403729468200046 	8.32667268468867e-17 	1.07600636053191 	0.0387784401937157 	2.12607376738996
4 	0.426341520272734 	8.32667268468867e-17 	1.07596013736593 	0.0400143167860827 	2.1638228837041
4 	0.449781918030829 	9.0205620750794e-17 	1.07592494885268 	0.0412618155616712 	2.20805406653408
4 	0.474081006202548 	9.0205620750794e-17 	1.07590186149642 	0.0425171473493519 	2.25880008697946
4 	0.499270241132364 	8.32667268468867e-17 	1.07589112475266 	0.0437752380907568 	2.31609989550514
4 	0.525382231502763 	7.97972798949331e-17 	1.07589389733977 	0.0450295003470429 	2.37998054055552
4 	0.552450780547767 	7.97972798949331e-17 	1.07592831178956 	0.0462722436074971 	2.45048257333591
4 	0.58051092981285 	7.63278329429795e-17 	1.07602105080619 	0.04750098193369 	2.52805302486433
4 	0.609599004517911 	6.93889390390723e-17 	1.07617039477346 	0.0487123011406198 	2.6127643214814
4 	0.639752660582033 	6.24500451351651e-17 	1.07634752797348 	0.0498707205877265 	2.70180706545143
4 	0.671010933370887 	5.20417042793042e-17 	1.07653184570919 	0.0509030305262549 	2.78891359321917
4 	0.703414288229901 	4.16333634234434e-17 	1.07672460825908 	0.0517263213828583 	2.86639492613837
4 	0.737004672868606 	3.46944695195361e-17 	1.07693374352089 	0.0522687059609186 	2.92724766862383
4 	0.771825571663977 	3.12250225675825e-17 	1.07716474316324 	0.0524763146777467 	2.96657085532711
4 	0.807922061953054 	3.46944695195361e-17 	1.07741849714663 	0.0523119483570746 	2.98193570643966
4 	0.845340872387743 	3.46944695195361e-17 	1.0776923375439 	0.0517528227348636 	2.97270089898832
4 	0.88413044342731 	2.77555756156289e-17 	1.07798213267322 	0.050791747993068 	2.93901515052091
4 	0.924340990046898 	2.77555756156289e-17 	1.0782840848731 	0.0494416763372897 	2.88125082647429
4 	0.966024566743242 	2.77555756156289e-17 	1.07859565915042 	0.0477406560567024 	2.79999870161024
4 	1.00923513492173 	3.12250225675825e-17 	1.07891565141272 	0.0457539881608282 	2.69642179735594
4 	1.05402863275206 	3.46944695195361e-17 	1.07924356388406 	0.0435716120929579 	2.57275877676281
4 	1.10046304758287 	4.16333634234434e-17 	1.07957848372665 	0.0412998286680407 	2.43276259801496
4 	1.14859849100923 	4.85722573273506e-17 	1.07991802666833 	0.0390472886079276 	2.28176420495928
4 	1.19849727668995 	4.85722573273506e-17 	1.08025861379581 	0.0369071475906959 	2.12605814127243
4 	1.25022400101563 	5.29632761259169e-17 	1.08059573862829 	0.0349409192779889 	1.97166773523199
4 	1.30384562673186 	6.03358508988183e-17 	1.08092197951847 	0.0331697064648419 	1.82302164464057
4 	1.35943156962565 	5.70290342727375e-17 	1.08129393476061 	0.0315673503859706 	1.68166319419913
4 	1.41705378838763 	5.96311194867027e-17 	1.08169853621739 	0.0301025423401992 	1.54843646954983
4 	1.47678687776592 	6.80878964320897e-17 	1.082076608394 	0.0287549437016923 	1.42535620556543
4 	1.53870816513278 	6.50521303491303e-17 	1.08244453585755 	0.0274957984004936 	1.3126797829322
4 	1.60289781058851 	6.33174068731535e-17 	1.08280264112179 	0.026280729339192 	1.20759792138671
4 	1.66943891073267 	6.67868538251071e-17 	1.08315132332496 	0.0250698752688059 	1.10996181290811
4 	1.73841760623657 	6.93889390390723e-17 	1.08348660446517 	0.0238363194755749 	1.02273845867747
4 	1.8099231933566 	6.07153216591882e-17 	1.08380402357979 	0.022557710998475 	0.946611622541344
4 	1.88404823953249 	5.8113236445223e-17 	1.08409968013621 	0.0212178466086728 	0.880053383290862
4 	1.96088870322038 	7.02563007770607e-17 	1.08436952067453 	0.019838735402002 	0.822499126129966
4 	2.02024009608346 	7.63278329429795e-17 	1.08455383422277 	0.0187499699613567 	0.783907305201218
4 	2.06000503604194 	-3.46944695195361e-18 	1.08466843262355 	0.0179923442834034 	0.759788354187968
4 	2.09836474743796 	-3.46944695195361e-18 	1.08476617088902 	0.0172896281983654 	0.739664719716546
4 	2.13536888877258 	-3.46944695195361e-18 	1.0848520244858 	0.0166166013747039 	0.722415943491836
4 	2.17106536369585 	-6.93889390390723e-18 	1.08492601647385 	0.0159735906640359 	0.707874762508121
4 	2.20550038302044 	-1.04083408558608e-17 	1.08498909003014 	0.015360539952502 	0.695908102469309
4 	2.23871852454378 	-6.93889390390723e-18 	1.08504213647712 	0.0147770683526731 	0.686410634676272
4 	2.27076279075613 	-3.46944695195361e-18 	1.08508598122464 	0.0142225374190846 	0.679301218780494
4 	2.30167466450941 	0 	1.08512142078022 	0.0136961176671247 	0.674521086482092
4 	2.33149416271873 	1.04083408558608e-17 	1.08514922223691 	0.0131968489811548 	0.672033061298263
4 	2.36025988816627 	2.25514051876985e-17 	1.0851701210077 	0.0127236926731048 	0.671821413621598
4 	2.38800907947441 	2.77555756156289e-17 	1.0851848200176 	0.0122755747498312 	0.673892136550706
4 	2.41477765931296 	2.77555756156289e-17 	1.08519398900002 	0.0118514208921538 	0.678273539123952
4 	2.44060028090272 	2.42861286636753e-17 	1.08519826381986 	0.0114501840962712 	0.685017118906787
4 	2.46551037287586 	2.42861286636753e-17 	1.08519824589501 	0.011070866076364 	0.694198713076757
4 	2.48954018255081 	2.77555756156289e-17 	1.08519450172088 	0.0107125335041312 	0.705919947641893
4 	2.512720817678 	3.12250225675825e-17 	1.08518756249157 	0.0103743300487963 	0.72031001545464
4 	2.53508228671037 	3.46944695195361e-17 	1.08517792381474 	0.010055485029233 	0.737527819672389
4 	2.55665353765073 	3.46944695195361e-17 	1.08516604552071 	0.00975531932663892 	0.757764522923735
4 	2.57746249552637 	3.46944695195361e-17 	1.08515235157003 	0.00947324904711653 	0.781246545272454
4 	2.59753609853934 	3.46944695195361e-17 	1.08513723006767 	0.0092087872766176 	0.80823905717806
4 	2.6169003329393 	3.46944695195361e-17 	1.08512103339502 	0.00896154414021956 	0.839050017867147
4 	2.6355802666639 	3.81639164714898e-17 	1.08510407847348 	0.00873122526645814 	0.874034815718365
4 	2.6536000817905 	4.16333634234434e-17 	1.0850866471753 	0.00851762866827609 	0.913601576489142
4 	2.67098310584103 	3.81639164714898e-17 	1.0850689868983 	0.00832063998865394 	0.958217218833261
4 	2.68775184198057 	3.12250225675825e-17 	1.08505131132196 	0.0081402260255051 	1.00841435622839
4 	2.7039279981488 	2.60208521396521e-17 	1.08503380136157 	0.00797642645137147 	1.06479917196277
4 	2.71953251516198 	3.12250225675825e-17 	1.08501660633648 	0.00782934368191574 	1.12806043086256
4 	2.73458559382185 	3.81639164714898e-17 	1.08499984536507 	0.00769913092276542 	1.19897983891717
4 	2.74910672106653 	3.81639164714898e-17 	1.08498360899535 	0.00758597853057068 	1.27844401941228
4 	2.76311469519732 	3.46944695195361e-17 	1.08496796107274 	0.00749009894676259 	1.36745843902333
4 	2.776627650214 	3.12250225675825e-17 	1.08495294083804 	0.00741171057812102 	1.46716368449216
4 	2.78966307929018 	3.12250225675825e-17 	1.08493856523742 	0.00735102107649153 	1.57885455297895
4 	2.80223785741904 	3.12250225675825e-17 	1.08492483141403 	0.00730821047860973 	1.70400247004488
4 	2.81436826325886 	2.77555756156289e-17 	1.08491171933919 	0.00728341458074449 	1.84428178595938
4 	2.82607000020648 	2.08166817117217e-17 	1.08489919453101 	0.00727670873430988 	2.00160053228298
4 	2.83735821672613 	1.73472347597681e-17 	1.08488721080262 	0.0072880919782745 	2.1781362753288
4 	2.8482475259599 	1.73472347597681e-17 	1.08487571298322 	0.00731747112696743 	2.37637784065348
4 	2.85875202464506 	1.73472347597681e-17 	1.08486463956906 	0.00736464419747695 	2.59917400366388
4 	2.86888531136304 	1.73472347597681e-17 	1.08485392524794 	0.00742928251014779 	2.84979089669264
4 	2.87866050414343 	1.56125112837913e-17 	1.08484350308544 	0.00751091107788687 	3.13198108537998
4 	2.88809025744591 	1.04083408558608e-17 	1.08483330640416 	0.00760888769516619 	3.45006931908441
4 	2.89718677854204 	5.20417042793042e-18 	1.08482327328843 	0.00772238265916367 	3.80906333458844
4 	2.90596184331818 	6.93889390390723e-18 	1.08481335475799 	0.00785036353799621 	4.21480366434794
4 	2.91442681151997 	1.04083408558608e-17 	1.08480347800527 	0.00799159280877852 	4.67417678207343
4 	2.922592641458 	1.04083408558608e-17 	1.08479340892176 	0.00814464199859237 	5.19552290519786
4 	2.93046990419395 	1.04083408558608e-17 	1.08478331507147 	0.00830784585610452 	5.79026877596556
4 	2.93806879722526 	1.04083408558608e-17 	1.08477322700686 	0.00847905301512901 	6.47448916852222
4 	2.94539915768638 	1.04083408558608e-17 	1.0847630177449 	0.00865448223638674 	7.26527857143072
4 	2.95247047508334 	1.38777878078145e-17 	1.08475288808404 	0.0088271665799955 	8.17764782634781
4 	2.9592919035784 	1.21430643318376e-17 	1.08474280474339 	0.00898818387236099 	9.22807401952888
4 	2.96587227384055 	6.93889390390723e-18 	1.08473265034804 	0.00912753141643026 	10.438892814208
4 	2.97222010447726 	6.93889390390723e-18 	1.08472235812346 	0.00923432538506642 	11.8432741992456
4 	2.97834361306218 	6.93889390390723e-18 	1.08471193207835 	0.00929642982258718 	13.4918640813979
4 	2.98425072677325 	6.93889390390723e-18 	1.08470143351057 	0.00929949438865049 	15.4628980002542
4 	2.98994909265477 	6.93889390390723e-18 	1.08469097218594 	0.0092251377901863 	17.879416172833
4 	2.99544608751689 	6.93889390390723e-18 	1.08468070944762 	0.00904763599880343 	20.9429543226186
4 	3.00074882748522 	6.93889390390723e-18 	1.08467086930523 	0.00872826664720376 	24.9847934741742
4 	3.00586417721304 	6.93889390390723e-18 	1.08466174315231 	0.00820540881818242 	30.5820519696415
4 	3.01079875876789 	6.93889390390723e-18 	1.08465365932971 	0.00737810671439719 	38.8270124857327
4 	3.01555896020418 	6.93889390390723e-18 	1.08464694536741 	0.00608641460946713 	52.0457451410982
4 	3.02015094383281 	6.93889390390723e-18 	1.08464206287763 	0.00414339782869617 	76.4704770948517
4 	3.02458065419861 	6.93889390390723e-18 	1.08463912255865 	0.00178624534360905 	138.136524035075
4 	3.02885382577582 	6.93889390390723e-18 	1.0846374515995 	0.000358048294797445 	433.414540989121
4 	3.03297599039165 	6.93889390390723e-18 	1.08463648819896 	2.76438983967571e-05 	1716.50256037775
