/*--------------------------------*- C++ -*----------------------------------*\
  =========                 |
  \\      /  F ield         | OpenFOAM: The Open Source CFD Toolbox
   \\    /   O peration     | Website:  https://openfoam.org
    \\  /    A nd           | Version:  7
     \\/     M anipulation  |
\*---------------------------------------------------------------------------*/
FoamFile
{
    version     2.0;
    format      ascii;
    class       volScalarField;
    location    "7000";
    object      k;
}
// * * * * * * * * * * * * * * * * * * * * * * * * * * * * * * * * * * * * * //

dimensions      [0 2 -2 0 0 0 0];

internalField   nonuniform List<scalar> 
15600
(
0.000320333355751706
0.000292292222841519
0.000171026605658391
6.91783350320001e-05
1.80980232812909e-05
1.24952602285702e-05
1.30818077411437e-05
1.00414405163361e-05
7.9946337348658e-06
7.06900495505959e-06
6.6180841245638e-06
6.55970434677983e-06
6.92395450971208e-06
7.77341531134246e-06
9.26501347813491e-06
1.15418026460911e-05
1.47703711140356e-05
1.90596529385194e-05
2.46451354443828e-05
3.17412542711135e-05
4.04299751191126e-05
5.06352119359156e-05
6.2576073163042e-05
7.62736760032827e-05
9.10376351480585e-05
0.00010615495241502
0.000120660804092135
0.000133729665312448
0.000167016017007061
0.000212951912379799
0.000252190160439552
0.000286496344751614
0.000317838610995731
0.000346609192557389
0.000372637040327413
0.000395673445942892
0.000416138645674241
0.0004340491917411
0.000449467744883721
0.000462469352633171
0.000473151390366986
0.000481631380810236
0.000488045385704811
0.000492542453279899
0.000495280583929974
0.000496421520315862
0.000496126963733962
0.000494554854898889
0.000491856767273927
0.000488175769798829
0.000483645104198424
0.000478387258712044
0.000472513615996858
0.000466124392871667
0.000459308943671579
0.00045214616838073
0.000444705292746507
0.00043704612031964
0.000429219083854842
0.000421268813866137
0.00041323158743596
0.000405137464038031
0.00039701226883048
0.000388875442905124
0.000380741810757813
0.000372622319932836
0.000364524227763823
0.000356451438462408
0.000348404772307372
0.000340382147186901
0.000332378773624928
0.000324387146138454
0.000316397193777545
0.000308395983878526
0.000300367942963946
0.000292294007581553
0.000284152240664359
0.000275915764556865
0.000267554628420422
0.000259031030912105
0.000250308235038838
0.000241285924184406
0.000232014964698356
0.000222516245792861
0.000212678352103359
0.000202310641365844
0.000191295741756108
0.000179365739239953
0.000166389651459973
0.000151971239934592
0.000135593129238017
0.000114932296905642
0.000102915711571988
0.000112365093290195
0.000122748459207088
0.000134737770018776
0.000145310721833354
0.00015498681915618
0.000164587227671555
0.000175162627417744
0.000184686834898021
0.000193636800881199
0.000201765828961598
0.000208847290262298
0.000211430864926119
0.000211317974826317
0.000209867692782133
0.000207775018601303
0.000206326014481767
0.000208416737909778
0.00021935437398057
0.000237269898769156
0.000265805364597723
0.000315358397956471
0.000390269723411064
0.000466258340885795
0.000419691826492801
0.000337302506739006
0.000276224156055223
0.000301077813753096
0.0054648825732198
0.00500617287756503
0.0031120992472982
0.00130981393350573
0.000346165618495362
0.000230966564508401
0.000241890090308822
0.000186964890540637
0.000148462192457855
0.000130827779970444
0.000122117993565884
0.000120697424690869
0.00012698708479997
0.000142107079661776
0.000168879507740033
0.000209859709837184
0.000267962006135918
0.000344993809235968
0.000444786341120876
0.000570526385973622
0.000722726985410864
0.000899033339803612
0.00110143079978341
0.00132802047307351
0.00156638363275992
0.00180504527980811
0.00203295498699183
0.0022668850668439
0.00277832601715877
0.00341501256804801
0.0039355377032444
0.00437804248535639
0.00477366259464069
0.00513026548493923
0.00544833245495063
0.00572513094431131
0.00596851098968059
0.00617991946808087
0.0063611197857353
0.006513743179632
0.00663945739913299
0.00673997272408342
0.00681705668157878
0.00687250501856124
0.00690812429431437
0.00692570055126138
0.00692697799910034
0.00691363569639499
0.00688727175752913
0.006849389797468
0.00680139091797737
0.00674456789861183
0.00668010348919671
0.00660907064493267
0.00653243547366811
0.00645106094831145
0.00636571366712449
0.00627706569091783
0.00618569144912993
0.0060921067433322
0.00599674364825833
0.00589996330761457
0.00580207891257853
0.00570333675771415
0.00560393012600192
0.00550400656874732
0.00540366969025376
0.00530298201041389
0.00520196718081383
0.0051006112645813
0.00499886402488104
0.00489663806357875
0.00479380928727933
0.00469021268570084
0.00458564285013473
0.00447984331090317
0.00437250997830362
0.00426326652426501
0.00415167878068554
0.00403719919444157
0.0039192607667159
0.0037964490946928
0.00366950340348497
0.00353862095635586
0.00340200144276884
0.00325689671263806
0.00310122382295649
0.00293100727272357
0.00274336011013363
0.00253229040890257
0.00228788234304472
0.00197399222174541
0.00177846761189119
0.00191134564994105
0.00207820849461532
0.00227083611896058
0.00244542016429768
0.00260941108155745
0.00277529929303031
0.00295692249171787
0.00312362505121648
0.00328096450810008
0.00342483645357155
0.00355005460828546
0.00360522510696731
0.00361798183264873
0.0036092840539735
0.00359023673528584
0.00358209769594063
0.00363332988553062
0.00382623043623969
0.0041253368219882
0.00458587848169959
0.00534427393286303
0.00641596061599726
0.00742978856179918
0.0068983443112171
0.00581586134785014
0.00489738004326678
0.00519741523242221
0.0176081107727529
0.0163760694873187
0.0124787452351767
0.00675973818037297
0.00197407619574561
0.00116810582054401
0.00121746182448262
0.000961610947826336
0.000769514600327469
0.000677460673794956
0.00063117708366401
0.000621164895556207
0.000649282390111854
0.000720777003651451
0.000847862437741495
0.00103912632648863
0.00130104901383183
0.00163248342621138
0.00203529834622582
0.00250300119267594
0.00301858495857662
0.00356286588009629
0.00413252039545032
0.00471782144042574
0.00529857108044751
0.00587374669902052
0.00647068525072691
0.00717508622748276
0.00831351715038734
0.00954147464561268
0.0105289130855437
0.0113694449970737
0.0121179567515519
0.0127893826169651
0.0133876067755416
0.0139154913578918
0.0143817739106448
0.0147899628575191
0.0151434796595866
0.0154453626143725
0.0156985886761189
0.0159061182037292
0.0160709468585938
0.0161960841244148
0.0162845393852318
0.0163392858411472
0.0163632331861514
0.0163591966526217
0.0163298740319846
0.0162778255843602
0.0162054606527457
0.0161150274979761
0.0160086084415232
0.0158881182230608
0.0157553059926751
0.0156117592472715
0.0154589103782258
0.0152980407802218
0.0151302762101302
0.0149566305991333
0.0147779887460566
0.0145951116589461
0.0144086652576427
0.0142192062349267
0.0140271951867309
0.0138330063939377
0.0136369315685189
0.0134391839150186
0.0132399011557506
0.0130391471956958
0.0128369131918035
0.0126331158785751
0.0124275962893395
0.012220112963155
0.0120103383697021
0.0117978429452459
0.0115820905568733
0.0113624041379348
0.0111379649341875
0.0109077401671413
0.0106705515837706
0.01042433326447
0.0101690170131939
0.00990482112690962
0.00962835501765363
0.009334447465719
0.00901788145971872
0.00867069111791187
0.00828390718284519
0.00784442547618729
0.00732541297231944
0.00664218269358309
0.00614657049287642
0.00632638895995521
0.00671251769428611
0.00719775109726882
0.00768689582017803
0.00818143389934158
0.00870461066411645
0.00927671551509156
0.00983808448629572
0.0103819812401477
0.0108959433983905
0.0113613948313305
0.0116801018316007
0.011893263940579
0.0120505084731429
0.0121839623773578
0.0123408973957066
0.0126322661183939
0.0132362599604697
0.0140713938498859
0.0152031574030544
0.0167998530188525
0.018785008725919
0.0203992550107835
0.0197592221902752
0.0182974897302962
0.0171906466216566
0.0175565189387434
0.0260850188895287
0.0248597598581787
0.0209154005448771
0.0142647620010424
0.00596051296396785
0.00324428868368294
0.00320463913672723
0.00263482208784901
0.00215981290885009
0.00190770565180587
0.00177058572054138
0.00172278208803103
0.00176837287057996
0.00191472390396215
0.00217929409875846
0.00256268509237172
0.00305458756836027
0.00363068069253161
0.00427745136256135
0.00497450582985687
0.00569672496828502
0.00642872741546601
0.00717843818878209
0.00794263143065826
0.00871031482200077
0.00949992794225534
0.0103729350959119
0.0114557278488231
0.0129965546784344
0.0145543795204492
0.0158153144179423
0.0169002435110305
0.0178631789475219
0.0187224191766467
0.0194862956062775
0.0201633235424737
0.02076179099422
0.0212864426550767
0.0217416268178911
0.022131237797461
0.0224590667841581
0.022728863029494
0.0229443940659013
0.0231094279358463
0.0232277173997272
0.0233029620440351
0.0233387768905668
0.023338658315277
0.0233059574854933
0.0232438577061028
0.0231553587641441
0.0230432654244643
0.022910181526441
0.0227585081918083
0.0225904458748428
0.0224079990630264
0.0222129844736998
0.022007033462767
0.0217915933931047
0.0215679670771772
0.0213373025386508
0.0211005986805899
0.0208587305995986
0.0206124441146683
0.0203623670729403
0.0201090196745261
0.0198528200466554
0.0195940893066575
0.0193330553881445
0.0190698554075905
0.0188045369673244
0.0185370569143061
0.0182672794660651
0.0179949696956199
0.0177197878558759
0.0174412740306641
0.0171588383175093
0.0168717289617312
0.0165790189824458
0.0162795422502901
0.015971916992942
0.0156540835285
0.0153246175969045
0.0149832297413259
0.0146266756818488
0.0142495034371288
0.0138454081325512
0.0134053638950264
0.0129180963162111
0.0123674540445906
0.0117254280955035
0.0108880554209616
0.0102342914409867
0.0103501933180937
0.0108136318691319
0.0114538591374687
0.0121530271340061
0.0128937216656911
0.0136958442677721
0.0145746388370579
0.0154645493647961
0.0163419159882026
0.017185711406263
0.0179657159160914
0.018575780789986
0.019047040913416
0.0194415550016984
0.0198089125585463
0.0202102913700822
0.0207784941526927
0.0217132540278853
0.0229242712832264
0.0244400088905386
0.0263969951871084
0.0287341951154379
0.030745123972651
0.0301704690286299
0.0279311279941062
0.0260228542432653
0.0260023289815125
0.0317045110373212
0.0306619720705999
0.0269098682048926
0.020479727985757
0.011359756809462
0.00636687274489268
0.00566874699221005
0.00481656519425404
0.00406477962346189
0.00361121295745187
0.00333573069318651
0.00320273035218897
0.00321825455127586
0.00338886064995297
0.00372938037284238
0.00422433360363867
0.00484256463096572
0.00554362856981442
0.00630770323558428
0.00711148765916633
0.00793295362060391
0.00876610158585537
0.00962624024062426
0.0105142506365358
0.0114276485271886
0.0123985205720347
0.0135058772194512
0.014884592960718
0.0167000255623969
0.0184727340803993
0.0199217064136515
0.0211761510275295
0.0222881290453721
0.0232775990560354
0.0241578288316598
0.0249394853561021
0.0256307412612019
0.0262371052922198
0.0267635112958703
0.0272144273587519
0.0275942022771614
0.0279071370425802
0.0281575448056094
0.0283497345470781
0.0284879917552886
0.028576538486751
0.0286194981064144
0.0286208585290745
0.0285844426402993
0.0285138835559103
0.0284126071418759
0.0282838194973894
0.0281305002264453
0.0279554005454923
0.0277610453737786
0.0275497393006769
0.0273235751550498
0.0270844328904482
0.0268339924916829
0.0265737632454061
0.0263050814364253
0.026029116736692
0.0257468944318103
0.0254592961676621
0.0251670705677841
0.0248708438334773
0.0245711266843275
0.0242683203088803
0.023962720941518
0.0236545229331651
0.0233438204614891
0.0230306069026646
0.0227147729011253
0.0223961005431971
0.0220742567756492
0.0217487793322747
0.0214190641392407
0.0210843367058996
0.0207436315461685
0.0203957368395642
0.0200391877808077
0.0196719751282871
0.0192920699223823
0.0188980847315081
0.0184871825510332
0.01805410989744
0.0175922479004536
0.0170923302786986
0.0165422564270728
0.0159249108959144
0.0152125214446022
0.0142975634471653
0.0135462393063154
0.013576290682846
0.0140474411674539
0.0147607958766549
0.0155849131985567
0.0164846805710671
0.0174720958620574
0.0185559030824348
0.0196710791323747
0.0207828393575375
0.0218634536824644
0.0228746388442746
0.0237123782511498
0.0243958728627091
0.0249889731576266
0.0255511410982233
0.0261520505395796
0.0269323756878809
0.0280960982506624
0.0295717579148836
0.0313696866387897
0.0336019635274844
0.0362348553742292
0.0386485736994991
0.0385066495842358
0.0359218577178666
0.0328275761429263
0.0318334158976371
0.03628994601827
0.0352472793359013
0.0316344989214505
0.0253207736887119
0.0166699808055187
0.0100942706025081
0.00810948908664448
0.00695491511547826
0.00599672649603268
0.00535893425144343
0.00493926590027678
0.00470322348371176
0.00465966290474946
0.00481674158521375
0.00518572979255236
0.00573667549666557
0.00642136602228608
0.00719029208927103
0.00802103225024159
0.00889050664696936
0.00978116244499445
0.010694049715117
0.0116479801110976
0.0126465253857659
0.0136939992459812
0.0148311234897772
0.0161439793907691
0.0177608832600263
0.0197775597086433
0.0217064513602419
0.0232994963703084
0.024685208775965
0.0259135698989911
0.0270063522322872
0.0279796203239046
0.0288448548903869
0.029610325309266
0.0302820769313293
0.0308654767391836
0.0313654322574648
0.0317867254307145
0.0321340922582029
0.0324122798167273
0.0326260303783495
0.0327800582275562
0.0328790074808116
0.0329274131842629
0.0329296620072047
0.0328899599325682
0.0328123055925601
0.032700471163268
0.0325579889377071
0.0323881438575678
0.0321939715046149
0.0319782601739694
0.0317435601094052
0.0314921841105056
0.031226216085579
0.0309475244796467
0.0306577861993002
0.0303584899953234
0.0300509441023299
0.029736296232031
0.029415538585534
0.0290895184734798
0.0287589492106917
0.0284244181241561
0.0280863933103038
0.0277452289198562
0.0274011689019723
0.0270543491977324
0.0267047977440293
0.0263524327579929
0.0259970576510442
0.025638354189248
0.025275869673819
0.0249090030365195
0.0245369790293494
0.0241588238274295
0.0237733163875457
0.0233789635411203
0.0229738055232657
0.0225555878397122
0.0221221982399667
0.021670840193928
0.0211965640485137
0.0206927887822155
0.0201503660210792
0.019557020417972
0.0188956109488698
0.0181387298434124
0.0171815308924055
0.0163663087565496
0.0163135074906361
0.0167624242192688
0.0175067965003813
0.0184069004846469
0.0194133757399128
0.0205292812879713
0.0217566148513495
0.0230316459579245
0.0243124435947732
0.025565884308524
0.0267476303648397
0.0277578134564742
0.0286070439112037
0.0293575395736571
0.0300739763633039
0.0308317854294813
0.0317749897694635
0.0331056738681819
0.0347744383244417
0.0367868542709795
0.0392359928352996
0.0421005851472919
0.0448122247065814
0.045119568390667
0.0426517568256664
0.0388944908918706
0.0369168407075934
0.0404376825127635
0.0392349321327364
0.0357220680226791
0.0293540161156459
0.0212546520210994
0.0140344039807454
0.0104824292268596
0.00889659086795449
0.00776757825644116
0.00697701588825617
0.00643059571204113
0.00609915676935893
0.00599373158490289
0.00612529891205568
0.00650233193859446
0.00708374796511421
0.00780844644199378
0.00862158949157135
0.00949949933912326
0.0104201992404864
0.0113701686798082
0.0123554435055923
0.0133966589925336
0.0144995095989145
0.0156734556796757
0.0169640476112737
0.0184579586679462
0.0202706289718459
0.0224431917015477
0.0244952828915132
0.0262071440886785
0.0277022678187337
0.0290286725647859
0.0302096816221247
0.0312626946216823
0.0321995476153598
0.0330286888881613
0.0337565755052796
0.0343889256212237
0.0349310109152383
0.0353879762163091
0.0357649259971811
0.0360669774360882
0.0362992443908797
0.0364668103224853
0.0365746837336421
0.0366277558011441
0.0366307585778182
0.0365882301314701
0.0365044860426377
0.0363835987970674
0.0362293835081282
0.0360453897622723
0.0358348994856534
0.0356009300293031
0.0353462431521579
0.0350733413462438
0.0347844860671993
0.0344817083257911
0.0341668301533476
0.0338414720820853
0.0335070621517496
0.0331648544551463
0.0328159371686806
0.032461243541698
0.032101563156407
0.0317375508304461
0.031369734128881
0.030998519333483
0.0306241958422766
0.0302469388953348
0.029866810216085
0.0294837566763598
0.0290976059622405
0.0287080598722551
0.0283146826882846
0.0279168868645392
0.0275139096213608
0.0271047868191734
0.0266883096012746
0.026262989057417
0.0258269183577994
0.0253777852017579
0.0249131044069708
0.0244299819880733
0.0239237449067815
0.0233880172591998
0.0228139645376426
0.0221895102495668
0.0214979579145556
0.0207124741408415
0.0197336458437349
0.0188775766046502
0.0187517158284964
0.019165558589749
0.0199176539640299
0.0208642774163692
0.0219451150367663
0.0231544991511482
0.0244877538622977
0.0258820108880706
0.0272903980556457
0.028675241379282
0.0299873675298955
0.031131263038969
0.0321119276192391
0.032989170712588
0.0338304113360578
0.0347151998166202
0.0357889731140163
0.0372491688264624
0.0390652267484815
0.041243640528488
0.0438622870169791
0.046900889278255
0.0498156615535569
0.0504736812852325
0.0482680684587672
0.0443061792974693
0.0416273008806259
0.0442881520661983
0.0428576915052693
0.0394150783270824
0.0329814170404041
0.0251101256319473
0.0179015735455092
0.0128982788822762
0.0106937617505827
0.00938415180426327
0.00846330646466262
0.0078084370994569
0.00739365601399936
0.00723067082964979
0.00733302257862058
0.0077074283386587
0.00830508515870467
0.00905548959369195
0.00990045418693415
0.0108156339850403
0.0117804044344384
0.0127846205716917
0.0138379238451735
0.0149620125221627
0.0161642527332505
0.0174576723038758
0.0188897479152301
0.0205437580283351
0.0225203597521526
0.0248192966998965
0.0269746788598631
0.0287896215931238
0.0303805935523257
0.0317937525536452
0.0330535365192605
0.0341778820292713
0.0351788142285923
0.0360649807275461
0.0368431737365674
0.0375194122807088
0.0380992852437516
0.0385882567548257
0.0389917584134815
0.0393152378955519
0.039564142312312
0.0397438872467441
0.0398598096804882
0.0399171222769922
0.0399208691124405
0.0398758883798499
0.0397867821011369
0.0396578941024688
0.0394932949325307
0.0392967730607865
0.0390718326081282
0.0388216993562119
0.0385493216631373
0.0382573752545675
0.0379482812281232
0.0376242165171795
0.0372871338723797
0.0369387723543186
0.036580667705994
0.0362141700571151
0.0358404541876552
0.0354605310838158
0.0350752596365099
0.0346853563392399
0.0342914035225578
0.0338938559966965
0.0334930460998733
0.0330891869937521
0.0326823739507028
0.0322725835127268
0.0318596699214092
0.0314433588165147
0.0310232367603835
0.0305987371106972
0.0301691187674804
0.029733439663242
0.0292905177898587
0.0288388905016231
0.0283767111463039
0.0279016901130714
0.0274111944007747
0.0269022254662034
0.0263703606216636
0.0258095048512715
0.0252112467100653
0.0245639356063659
0.0238515640630419
0.0230480685110021
0.0220606072348711
0.0211802571292646
0.0209930744125711
0.0213674800758484
0.0221138801776394
0.0230881669247095
0.024221955812481
0.0255015647542779
0.026915914057583
0.0284024239834009
0.0299105127006478
0.0313985247305496
0.0328133113359388
0.0340635345388583
0.0351507095695575
0.03613233515117
0.0370772919013739
0.0380681779329636
0.0392507253796247
0.0408163664187388
0.0427495260299077
0.0450594398957348
0.0478108544713319
0.0509769910950301
0.0540237991128981
0.0549330169647825
0.0529958869660019
0.0490670422467718
0.0459645569740681
0.0478659345546059
0.0462046130526411
0.0428117090951895
0.0363976434242703
0.0284667871683989
0.0215447367223929
0.0154586907574841
0.0124341806801501
0.0108958002415632
0.00985436553101434
0.00910420447053225
0.00861551638700735
0.00839889343267573
0.00846958293511536
0.00883349060419032
0.00943713173500502
0.0102033824650667
0.0110718230862344
0.012017698481955
0.0130217152850464
0.0140764635255375
0.015194225508484
0.0163973335977519
0.0176943527693587
0.019100464772752
0.0206629228940159
0.0224592991833012
0.0245757211527439
0.0269810186931466
0.0292268673670839
0.0311344459678138
0.0328123166047401
0.0343048390183622
0.0356370894620837
0.0368271306472336
0.0378871074792076
0.0388258603387289
0.0396504657706228
0.0403672102641827
0.0409819689394191
0.0415004969683304
0.0419285264038821
0.042271809998055
0.0425361035063324
0.0427271308225933
0.0428505342608563
0.0429118255590699
0.0429163391411505
0.0428691924667047
0.0427752539941034
0.0426391198042431
0.0424650977603154
0.0422571980875679
0.0420191319203496
0.0417543171792228
0.0414658742677715
0.0411566403551993
0.0408291840083252
0.0404858167915612
0.0401286123789489
0.0397594193374756
0.039379872831276
0.0389914119315981
0.0385952916113294
0.0381925949774642
0.0377842454734009
0.0373710173164286
0.0369535444358813
0.0365323277859083
0.0361077410436535
0.0356800345054638
0.0352493370330163
0.0348156557892672
0.0343788734504768
0.0339387424899624
0.033494875845447
0.0330467333805081
0.032593602641089
0.0321345728635706
0.0316684998423677
0.0311939631816618
0.0307091850713482
0.0302119416567195
0.0296995819648889
0.029169062021997
0.0286161845523126
0.0280351752664718
0.0274181069913207
0.0267538947487754
0.0260273471071251
0.0252133272968991
0.0242258763527315
0.0233333560573908
0.0230963417183695
0.0234314020442542
0.0241644112227509
0.025153785734266
0.0263255474142271
0.0276589169925464
0.0291368132827842
0.0306964657947586
0.0322842949810576
0.0338550688666256
0.0353523347893834
0.0366887046579832
0.0378636804014156
0.0389328098668666
0.0399657769801689
0.0410474666136415
0.0423230915424066
0.0439773513057765
0.0460063622505452
0.0484221190490032
0.0512770902149944
0.0545332363987261
0.0576591632899365
0.0587401830789315
0.0570363842915763
0.0532447343302134
0.0499162127190618
0.0511792367123975
0.0493143941950828
0.0459606436328829
0.0396694283607464
0.0315027965767582
0.0249084082697174
0.0182150226475654
0.0142009349953548
0.0123512099736682
0.0111855179282197
0.0103477438284454
0.00979120754913321
0.00952314146024731
0.00955942577527722
0.0099058610550287
0.0105068654732926
0.0112809736342854
0.0121662400588551
0.0131375822144293
0.0141768789256858
0.015278870676955
0.0164577594096647
0.0177362026810822
0.0191234814196097
0.0206357333033504
0.0223184567007105
0.024242322609055
0.026480117773967
0.0289777298901522
0.0313053393664962
0.0332982893044928
0.0350569140271743
0.036623747547992
0.0380241036965945
0.0392759451869676
0.040391498057812
0.0413797773313564
0.0422481079149454
0.0430030204652758
0.0436506554028942
0.0441970404581955
0.0446481909259433
0.0450101483863105
0.0452889615125828
0.0454906472546296
0.0456211383365406
0.045686231017304
0.0456915358777751
0.0456424358758254
0.0455440525910879
0.0454012215537474
0.0452184756975989
0.0450000353311133
0.0447498093415214
0.0444713935844545
0.0441680730941694
0.0438428374098069
0.0434983940579424
0.0431371813030525
0.0427613868319132
0.042372962345565
0.0419736365512116
0.0415649324076343
0.041148180525025
0.0407245321372803
0.0402949718640385
0.0398603288589183
0.0394212864422256
0.0389783900859007
0.0385320537678911
0.0380825644964429
0.0376300849314132
0.0371746537618316
0.0367161837227346
0.0362544566004165
0.0357891150510527
0.035319649939855
0.0348453830346129
0.034365442156549
0.0338787295768976
0.0333838794008047
0.0328791914771446
0.0323625334215312
0.031831313391865
0.0312825100560504
0.0307121430280215
0.0301147806298618
0.0294830131537056
0.0288064057783146
0.0280706449075844
0.0272516398277872
0.0262701959952243
0.025374475389389
0.0250980365364074
0.025396190675287
0.0261116537542697
0.0271075456404553
0.0283063872564872
0.0296812859615617
0.0312096461431342
0.0328281613410091
0.0344806831685718
0.0361187080370725
0.0376830370317146
0.0390900410284771
0.0403382337481114
0.0414816184441642
0.0425903479240168
0.0437510020098856
0.0451075962894308
0.0468376831041639
0.0489464323133972
0.0514477810443545
0.054382123913413
0.057697357883811
0.0608623492363523
0.0620549734205123
0.0605420373804545
0.0569257329161396
0.053498728385273
0.0542399129147975
0.0522088110669479
0.0488922280329621
0.0428051882401123
0.034353736974497
0.0279717139104395
0.0211471650477967
0.0160681775268138
0.0137940374275223
0.0124856033028307
0.0115626374709015
0.0109413708905184
0.0106224183831374
0.0106210817041918
0.0109434590589208
0.0115340047595498
0.0123088541264469
0.0132050639450823
0.0141972175704891
0.015268137017528
0.0164141884673863
0.0176509200476854
0.0190010498267117
0.0204741116542729
0.0220862252495681
0.0238800926818231
0.0259190098319683
0.0282639097731953
0.0308436992252913
0.0332469155675134
0.0353200115544169
0.0371550544164888
0.0387926606811882
0.040258057952152
0.0415689725014141
0.0427376801514388
0.0437733475390179
0.0446835209133372
0.0454749583377836
0.0461540513831309
0.0467270885739444
0.0472003578098033
0.0475801796394945
0.0478728861095072
0.0480847779066416
0.0482220689257872
0.0482908307995868
0.048296941201888
0.0482460396571423
0.0481434920969973
0.0479943649484435
0.0478034079419759
0.0475750443363453
0.0473133722881172
0.0470221572863428
0.0467048435040261
0.0463645663178343
0.0460041661492769
0.0456262022732824
0.04523297140503
0.0448265237755288
0.044408677366177
0.0439810353364171
0.0435450006171456
0.0431017896609841
0.0426524458116386
0.0421978511511161
0.0417387368248945
0.0412756917047875
0.0408091694093441
0.040339493481166
0.0398668607020715
0.0393913421647691
0.0389128821204829
0.0384312938103733
0.0379462524561247
0.0374572836900087
0.0369637481588488
0.0364648182622361
0.035959449913169
0.0354463415079082
0.0349238789527652
0.0343900383452541
0.033842334745953
0.0332778285432628
0.0326927611346996
0.0320820568436065
0.03143883977863
0.0307533734849683
0.030012245739938
0.029192497924728
0.0282213645717781
0.0273291665388131
0.0270224025009901
0.0272872661060261
0.0279833011315909
0.0289798386096851
0.0301976283706902
0.0316046401666435
0.0331732994348281
0.0348395412479926
0.0365449203026381
0.0382379052598436
0.0398570328390313
0.0413222903218921
0.0426319302227216
0.0438387887620186
0.0450133159582993
0.0462432829972203
0.0476709088027308
0.0494663477940204
0.0516417165460481
0.0542117218514583
0.0572046720718268
0.060553111963375
0.0637264659053231
0.0649856555073853
0.0636242947211492
0.0601902164263159
0.0567441376155057
0.057064095583401
0.0549040448665572
0.0516285524193713
0.0457930282727885
0.0371149010117136
0.0307595311625547
0.0241706116029854
0.0180997390933895
0.0152658714992181
0.0137789254886155
0.0127675639679166
0.0120820896466101
0.01171140084773
0.0116688029815095
0.0119607603896655
0.012533455730762
0.0133023324966685
0.0142039233402874
0.015212435413021
0.0163113740156347
0.017498260305715
0.0187895085511968
0.0202076508695098
0.0217620530315484
0.0234680528572151
0.0253648903029161
0.0275084570886016
0.0299493061097786
0.0326037894571751
0.0350781256907014
0.0372275157510521
0.0391358632803944
0.0408417393226238
0.0423700199346481
0.043738101531024
0.0449582772436965
0.0460398402111504
0.0469905365296688
0.0478173393723538
0.0485268821644192
0.0491257073637517
0.0496203696854471
0.0500174635059716
0.0503235992575583
0.050545356400756
0.050689224908656
0.0507615465600008
0.0507684607525915
0.0507158581113286
0.050609343390012
0.0504542083752936
0.0502554141159187
0.0500175832288454
0.0497449941924483
0.0494415790693558
0.0491109364903215
0.048756343015577
0.0483807675968631
0.0479868863898433
0.0475771014950864
0.0471535582991407
0.0467181609107892
0.0462725899581161
0.0458183182395531
0.0453566252767856
0.0448886113321179
0.0444152099539721
0.0439371989976611
0.0434552099745966
0.0429697357509371
0.0424811364012146
0.0419896432375107
0.0414953606194862
0.0409982656606883
0.0404982049692256
0.0399948888386183
0.0394878809304247
0.0389765847908479
0.0384602224992362
0.0379378097184003
0.0374081172242969
0.0368696247365848
0.0363204291241108
0.0357581831308295
0.035180075848309
0.0345825826134734
0.033960993184725
0.033308971484582
0.0326175029946184
0.0318740771372251
0.03105692471195
0.0300992745180918
0.0292156924895371
0.0288864221300532
0.0291221152140992
0.0297983206802443
0.0307915183387988
0.0320220791458151
0.0334537591561336
0.0350545606239215
0.0367595373459039
0.0385081314385658
0.0402459911803767
0.0419098169922661
0.0434231148949364
0.0447844034805196
0.0460456773751292
0.0472775849990295
0.048568626407722
0.0500586823706826
0.0519103417932851
0.0541409541803114
0.0567647314554218
0.0597979877014044
0.0631578600948058
0.0663160132453085
0.0676080500260296
0.0663647463249302
0.0631053679417684
0.0596885152069296
0.0596698551519668
0.0574142505328995
0.0541869555679028
0.0486208153418078
0.0398432183248201
0.0333223720766446
0.0271655687037899
0.0203462585557463
0.0168094548417794
0.0150879578332374
0.0139782312853475
0.0132265007731911
0.0128019341254366
0.0127140320777016
0.0129693403713235
0.0135170232744475
0.0142733541406317
0.0151748271785109
0.0161952336083669
0.017318495619784
0.018542865435154
0.0198852053690508
0.0213676258066547
0.0229989574084386
0.0247931774028157
0.0267856764195733
0.0290251715805924
0.0315531578405272
0.0342767090482307
0.0368188149370975
0.0390416070206058
0.0410210020324875
0.0427933808417349
0.0443830435173341
0.0458069825194145
0.0470774718359868
0.0482039049930692
0.049194209860931
0.050055565600979
0.0507948418320305
0.0514188318432876
0.0519343551318563
0.0523482784213995
0.0526674890654246
0.0528988436812528
0.0530491063881287
0.0531248868452738
0.0531325835741011
0.0530783354096863
0.0529679827870939
0.0528070395226814
0.0526006754014625
0.0523537082261014
0.0520705918613871
0.0517554229417663
0.051411951113954
0.0510435908060701
0.0506534363476179
0.0502442777581151
0.0498186198372616
0.0493787006285313
0.0489265080226994
0.0484637980680784
0.0479921115946306
0.0475127895872189
0.0470269878861382
0.0465356904374166
0.0460397210161764
0.0455397532725694
0.0450363191224574
0.0445298152993749
0.0440205081186775
0.0435085360642685
0.0429939103823197
0.0424765127990038
0.0419560909440995
0.0414322494115783
0.0409044382083303
0.0403719335510978
0.0398338161851317
0.0392889361271258
0.038735873960428
0.038172856827888