/*--------------------------------*- C++ -*----------------------------------*\
  =========                 |
  \\      /  F ield         | OpenFOAM: The Open Source CFD Toolbox
   \\    /   O peration     | Website:  https://openfoam.org
    \\  /    A nd           | Version:  7
     \\/     M anipulation  |
\*---------------------------------------------------------------------------*/
FoamFile
{
    version     2.0;
    format      ascii;
    class       volScalarField;
    location    "7000";
    object      omega;
}
// * * * * * * * * * * * * * * * * * * * * * * * * * * * * * * * * * * * * * //

dimensions      [0 0 -1 0 0 0 0];

internalField   nonuniform List<scalar> 
15600
(
1974.60613735576
1972.648325243
1984.42791022013
2055.78059759582
2222.67690004102
2356.686868098
2378.42128442444
2300.00018532342
2153.97031116953
1966.45861756929
1762.78479607635
1583.64547894744
1435.67966376577
1312.2349065017
1208.29531934702
1120.03744959636
1041.43040276847
963.351277377799
885.918292649371
810.58135114486
738.629427726828
671.777660481123
614.580438156229
568.667823075621
533.493089366932
508.868650769501
494.93483283514
492.061840314983
493.651539705996
493.651534338166
493.651534338173
493.651534338186
493.651534338214
493.651534338152
493.651534338164
493.651534338193
493.651534338173
493.651534338179
493.651534338187
493.651534338166
493.651534338199
493.651534338138
493.651534338171
493.651534338152
493.651534338165
493.651534338172
493.651534338187
493.651534338193
493.6515343382
493.651534338166
493.651534338172
493.651534338165
493.6515343382
493.651534338165
493.651534338146
493.651534338186
493.65153433818
493.651534338194
493.651534338178
493.651534338193
493.6515343382
493.651534338185
493.651534338193
493.651534338201
493.65153433813
493.651534338152
493.651534338177
493.651534338139
493.651534338172
493.65153433818
493.651534338191
493.651534338182
493.65153433818
493.651534338178
493.651534338194
493.651534338178
493.651534338152
493.651534338152
493.651534338159
493.651534338193
493.651534338166
493.651534338166
493.651534338171
493.651534338213
493.651534338157
493.651534338194
493.65153433817
493.651534338157
493.651534338187
493.651534338165
493.651534338165
493.651539706002
492.061840314982
494.934832835202
508.868650769232
533.493089366357
568.667823075228
614.580438156834
671.777660481449
738.629427726959
810.581351143299
885.918292648864
963.351277377646
1041.43040276902
1120.03744959597
1208.2953193011
1312.23490651725
1435.67966381516
1583.6454790092
1762.78479592733
1966.45861764716
2153.97031128258
2300.00018510395
2378.42128451691
2356.68686814436
2222.67690004416
2055.78059756207
1984.42791022399
1972.64832524326
1974.60613735531
419.788962026856
420.322819806463
454.409191114455
460.28064765664
460.354384632463
465.813288472805
468.657847492563
454.198427617262
426.454648013258
389.854852071224
349.960246918264
314.862772764887
285.862696300234
261.925942071351
242.007725633306
225.201182568125
210.024674107643
194.835550824031
179.578603422807
164.43952761997
149.764176286544
136.288819081391
124.793545231365
115.412001070536
108.24295132213
103.429109105467
101.658059354185
105.140325634344
106.224469867434
104.056921873955
102.575272622105
101.646740918153
100.94119753284
100.408490412089
100.026447222658
99.7610524501408
99.5082079152056
99.2692448351832
99.0439463383416
98.8325296416177
98.6353144874168
98.4526000635532
98.2845732047225
98.1313195358815
97.9928050744705
97.8689012782128
97.759388690097
97.6639762523895
97.5823094921528
97.5139835092728
97.4585497172931
97.4155251904008
97.3843978584876
97.3646332665
97.3556778928814
97.3569657870118
97.367914626603
97.3879410961423
97.416469331804
97.4528864690178
97.4966297638801
97.5471176186961
97.603725424374
97.6658841278739
97.7330276803968
97.8045880482855
97.8800043924859
97.9587223915237
98.0401941699726
98.1238789893754
98.2092409076758
98.2957518830053
98.3828854726044
98.4701265326323
98.5569547973019
98.642873240207
98.7273632700789
98.8099651151058
98.8901528836487
98.9675473243405
99.0413125422354
99.1247510365105
99.24175833104
99.3806535521216
99.5271221285729
99.6905605066411
99.8689798603032
100.087585291623
100.337147412221
100.676391736894
101.141137853457
101.952706706131
100.740487031432
98.2475051324461
100.492946095704
104.998715878819
111.729926150662
120.587988401393
131.640203648211
144.582200993765
158.812297961993
173.887315233783
189.622431909838
205.799645005835
222.673209552032
241.414142952466
263.179543998483
288.83934595816
319.307980389825
355.607790481831
396.485943616462
435.951938645334
468.374614599053
488.005465128269
490.733093688183
479.507216752015
488.107742463842
493.545761897364
478.452842985767
436.794904545335
182.804610661466
175.10779073781
180.227266910711
184.246306041624
169.773504792524
166.256032180717
163.38987721408
159.27479462164
150.559868150359
138.07365948178
124.213148992436
111.847969759095
101.65871358787
93.238331964024
86.2009350829391
80.2003960053707
74.7245046191451
69.2024127686299
63.6628532024408
58.2596470111722
53.1808319626752
48.6428767630224
44.9085778283019
42.0600692637314
40.0902335232752
39.0157416072677
38.8569032805336
39.2236058949187
39.2258139916042
39.0327966721499
39.0168769428547
39.0789044151235
39.1201958562683
39.1060530417057
39.0293804160504
38.9839421970852
38.94229359158
38.9035286580258
38.866394078685
38.8303317503593
38.7950997648888
38.7606489974205
38.727017456404
38.694301977041
38.6626207328923
38.6321058851605
38.6028893936853
38.5751003541304
38.5488592626455
38.5242766205432
38.501450031529
38.4804638355018
38.4613876407912
38.444276407338
38.429169563424
38.4160918802584
38.4050503870145
38.3960418367285
38.3890609731031
38.3840616040303
38.3810018201286
38.3798329156653
38.3804720983084
38.3828448279228
38.3868667769895
38.392441233368
38.3994633747648
38.4078208474315
38.4173945166951
38.4280598736123
38.4396870105908
38.4521437350294
38.4652940338449
38.4790054385968
38.4931430790599
38.5075884004717
38.5222197493422
38.5369617139228
38.5517255396604
38.56653853499
38.5812060407246
38.5993629422458
38.5936439730193
38.5680775089264
38.5345598974376
38.4949462479729
38.4480517567408
38.3938060168559
38.3306311137339
38.2459465654256
38.1916759398887
38.1636100324953
37.9424964097352
37.6176703227881
37.9612332549425
39.2244413968959
41.3869914666693
44.3198637737495
47.9901845903831
52.2861860336858
57.1159998993977
62.3099063295693
67.815351169863
73.5912258357034
79.8737693888196
86.8706573174356
94.8891784571399
104.234779414102
115.161695186869
127.756289625941
141.254926721264
154.395553184912
165.138124822831
170.860734849697
170.764320173378
168.82322192193
174.614570671422
188.196749538286
200.055732842371
196.286107501673
106.465910153337
99.8090220946923
103.651709409696
116.176795993616
104.590491366548
83.2371595040063
75.643976066404
73.8693921923797
70.4973020403155
65.0143734823108
58.8096637340305
53.2898239471986
48.7851898543704
45.1231408260903
42.0521169364025
39.347238042417
36.7716878427657
34.1632926501274
31.5810553805611
29.1299542077656
26.9150281521617
25.0240203558716
23.5331839437028
22.469490931859
21.8431757252236
21.6599763801226
21.8532900756634
22.1388493654972
22.1677858594881
22.1484416467623
22.2177306523586
22.3070666229403
22.3752262621487
22.3977233573359
22.4079713642417
22.4265934704126
22.443408082558
22.4579529712338
22.4696389542597
22.4783152834298
22.4840065362732
22.4868499376244
22.4870289587105
22.4847571046205
22.4802555870738
22.4737487566017
22.4654560031524
22.4555901130067
22.4443541514923
22.4319406585336
22.418530154109
22.4042909967723
22.3893786757632
22.3739358877856
22.35809214853
22.3419642354632
22.3256562701266
22.3092620898327
22.2928682181206
22.2765360723962
22.2603234721667
22.2442821126995
22.2284435984218
22.2128383276874
22.1974885867642
22.1824073629924
22.1676005519106
22.1530677559175
22.1388031076612
22.1247965189555
22.1110343068346
22.0975015186402
22.0841821451038
22.0710639717479
22.0581372354081
22.0454058571274
22.0328806755103
22.0206071826072
22.0086413883589
21.9971213392917
21.9860968407176
21.9771121585309
21.9628992338544
21.9334504073061
21.898927479645
21.8624424828581
21.8244342228971
21.7858836544302
21.747363126839
21.7069237709615
21.6834261471329
21.7041606171159
21.6205405306148
21.3292270584723
21.2603376932034
21.6899995738252
22.6226228643108
23.9630146430084
25.6596549136205
27.6461930508334
29.9018691040902
32.3500950028484
34.9614462274339
37.7234542019287
40.7776906003023
44.1809672551363
48.0251215009164
52.4259866698112
57.4674591481704
63.0836170386793
68.7804680062486
74.1675630509733
78.4291218361497
80.3871569655289
79.8763594370995
79.2026410094828
83.6355618108077
93.3085248252955
107.459859321612
112.379042408739
70.2815981602581
66.372338465869
69.7272805273855
86.290099318078
84.9294929365799
56.1728580822439
43.3506833342038
41.2299525445421
39.439596903828
36.539673897776
33.2847121084148
30.4641232642582
28.2233948324433
26.4608895609614
24.9803707862057
23.6238237981852
22.2765757608221
20.9043139721792
19.5508549898187
18.2796530737449
17.1542725224756
16.2220609475469
15.5125997434946
15.0454746382606
14.841025454115
14.9017377062485
15.1636769470618
15.4363846657424
15.4569949485495
15.4148076696262
15.4512349053919
15.5074392613817
15.5528969379194
15.5804423193067
15.6053398561137
15.6326467072836
15.6574624767248
15.6794426562104
15.6982298681036
15.7137708320446
15.7261257231391
15.7354316093777
15.7418558236161
15.7455853176439
15.7468115565579
15.7457272585985
15.7425210615755
15.7373763114267
15.7304690571082
15.7219674568098
15.7120308393411
15.7008095960933
15.6884447450836
15.6750679455352
15.6608012637947
15.6457576461385
15.6300418203798
15.6137496648197
15.5969707933048
15.5797790894985
15.5622442873214
15.5444313680195
15.5263929228093
15.5081790342161
15.4898342178269
15.471396859777
15.4529005638512
15.4343749398828
15.4158464089024
15.3973393155163
15.3788767803693
15.3604826047469
15.3421821794025
15.3240061296381
15.30599088781
15.2881864601398
15.2706550289739
15.2534888432892
15.2368013125081
15.2207715437507
15.2055550828023
15.1920375561616
15.1779357149477
15.1578147743252
15.1350194163267
15.112893451927
15.0929894536362
15.0774299167019
15.0684421593268
15.0693965955806
15.0923745389335
15.1778324072412
15.1624361171784
14.8805354324959
14.7083169767235
14.847638999229
15.3208902202954
16.064811493011
17.0306427596527
18.1694107150179
19.4720417530258
20.897781663183
22.4262755247407
24.0516467678397
25.8616575538105
27.8808021736921
30.1376576270851
32.6784949752323
35.5325504029493
38.6230582613642
41.6276115551414
44.3721515356468
46.4852195388402
47.3947375868376
47.063041755445
46.7934359545836
49.8243960734613
56.0099888128209
66.0514033483055
71.7489470869801
50.1186366197738
48.1603663280976
50.7069743421769
67.048796004733
73.5878536617431
47.6507026414732
30.2786046007664
26.9590903478073
25.547647795549
23.6922336705271
21.7150153699942
20.0752828059175
18.8301034865384
17.896227275831
17.1124297237223
16.3603845256925
15.5781500110234
14.7673942715108
13.9608942448625
13.2038493747541
12.5426376989256
12.0093214325165
11.6201363765182
11.3922906591246
11.3449655126133
11.4754971948848
11.7262881944593
11.9499884746419
11.9482959956617
11.8918363035279
11.905926288213
11.9396730040153
11.9698632114388
11.9941498556628
12.0183171278541
12.0431600762817
12.0658366545785
12.0860158028721
12.1034200274941
12.1180043031348
12.1298104706158
12.1389417937817
12.1455268720225
12.149711160036
12.1516453259083
12.1514822757297
12.1493729756179
12.1454652141175
12.1399019733738
12.1328207905798
12.1243529818559
12.1146234541466
12.1037503358699
12.0918449083047
12.0790114172589
12.0653478809499
12.0509460706709
12.0358908005751
12.0202621266404
12.0041295212226
11.9875588146461
11.9706122185527
11.9533438334507
11.9358054092776
11.9180449109083
11.9001062912919
11.8820304280191
11.8638558621836
11.8456195729064
11.8273579937465
11.8091079487066
11.7909083127185
11.77280122108
11.754835066024
11.7370659388283
11.7195636033549
11.7024125884298
11.6857251014144
11.669639276097
11.6543498767247
11.6400610773307
11.6273915832814
11.6156576715979
11.6022650408342
11.5882326050441
11.5762119015646
11.568098993529
11.5664090351701
11.5741061401037
11.5962410048486
11.6429272675378
11.7561147332233
11.7874996743204
11.55579796524
11.3630665619513
11.378635876394
11.6356914366622
12.0939541720247
12.7119752124632
13.45056882554
14.3027171942652
15.2438707523944
16.2590779036865
17.3449983986357
18.5606305279952
19.9211136212577
21.4340969704008
23.1180325789097
24.9817472351389
26.9584429617759
28.8242411563185
30.4784207319083
31.7277584666789
32.2613092740397
32.073044384857
31.9683814805372
34.0889131028014
38.3542147312119
45.173502292836
49.8406862003962
37.8616025476854
36.987166365436
38.8524162627064
53.1150931840791
63.9964684597292
44.9859842431036
24.7992516279686
19.9906834156961
18.5605407170379
17.1775978200495
15.8093706495122
14.729378208486
13.9514135370098
13.3985995543159
12.9349679260826
12.4673785701484
11.9587854408007
11.4216779530089
10.8830116196425
10.3786705060518
9.9450835938045
9.60569336664822
9.37113497987693
9.25583999674168
9.27449317808537
9.41975468319966
9.63909009003145
9.81238759745215
9.7944627333144
9.73536854701571
9.73764770814963
9.75818962330357
9.7791697520128
9.79923171143271
9.81994127692458
9.84076708156829
9.85983022171242
9.87680047744278
9.89143697766606
9.90368735340227
9.91357246507088
9.9211663279647
9.9265665672423
9.92988688710846
9.93124737141146
9.9307714964854
9.92858250619156
9.92480204501088
9.91954865959472
9.91293706958957
9.90507743671042
9.8960750956938
9.88603020174674
9.87503760733642
9.86318679386699
9.85056272663127
9.83724497094157
9.82330779288675
9.80882162449945
9.7938493055767
9.77845054997512
9.76268220218028
9.74659549180475
9.73023964468584
9.71366123697011
9.69690417489996
9.68001041723233
9.6630206651429
9.64597510643449
9.62891436111658
9.61188044166017
9.59491825109333
9.57807691925645
9.56141239756428
9.54498930748228
9.52888585599452
9.51319615055235
9.49804027206857
9.48356613941419
9.46997231053134
9.45748411624375
9.44658964032794
9.43721111368904
9.42820409567274
9.41988410947376
9.41430064564396
9.4133482982867
9.41958950904734
9.43623358462472
9.46869806722164
9.52599652419047
9.64732811260808
9.7082219292596
9.53229340966788
9.34901961208899
9.30723905631902
9.44743444949789
9.74589320447704
10.1689249580491
10.6842508973216
11.285141778484
11.9553695765552
12.6835757039979
13.4677656040651
14.3501634057922
15.3422318363937
16.4441525034342
17.6621698861567
18.9964709153235
20.3911928646811
21.6819564204394
22.8001551780941
23.6341663474669
23.99885336501
23.8975664877389
23.8701589924509
25.4101515613963
28.5485249285077
33.4216809354833
37.0437206076501
29.8872641927406
29.5760149718114
30.9799881834781
42.6274175429428
56.3807662053882
43.9427106018413
22.7621760705265
16.294719661304
14.6435388805527
13.485480084293
12.4367486766209
11.6470399023755
11.1066111644194
10.7421284134105
10.4364264980754
10.1134825047802
9.74942271037009
9.35984695565123
8.96806510147639
8.60389583334335
8.29674089703739
8.06432168881009
7.91416247664331
7.85777789870496
7.9051745528109
8.04565338101424
8.2313811276192
8.36335229347124
8.33643664691156
8.280231344193
8.2766255897202
8.28946617070779
8.30488394111252
8.32140423331853
8.33876838286997
8.356038272099
8.37185192666197
8.38588591273709
8.39792347213942
8.40790638258662
8.4158413197689
8.42178273575986
8.42580783985423
8.42800955642292
8.42848806217634
8.42734771889019
8.42469375012264
8.42063074324276
8.41526119526042
8.40868470170877
8.40099723718766
8.39229082702587
8.38265320334028
8.37216765505804
8.36091322498163
8.3489649958306
8.3363933536752
8.32326440771794
8.30964093607364
8.29557992807774
8.2811356008787
8.26635974801332
8.25130004782909
8.23600245788368
8.22051098979071
8.20486782667844
8.18911392893332
8.17328968401686
8.1574356237493
8.14159331548103
8.12580631993495
8.11012157101966
8.09459075525574
8.0792726306281
8.0642350553402
8.04955921355497
8.03534253412796
8.02170698299538
8.00880281939155
7.99682650208836
7.98601037610336
7.97676863059194
7.96927557911025
7.9631129536043
7.95849394558971
7.9569934406062
7.96040156576923
7.97118893988958
7.99257313926326
8.02985796033314
8.09121599661885
8.21176411599502
8.28986425928584
8.16279603135922
8.00009436296479
7.93231288306854
8.00421578929925
8.20423909474107
8.50585769292505
8.88226812151858
9.32684259642641
9.82806241630724
10.3770780396483
10.9727292633275
11.6466143769476
12.4082385087356
13.2551407326025
14.1878906915617
15.2027536288815
16.2529310426051
17.2126311770841
18.0304361398519
18.6365492035065
18.9128352933377
18.8650483859005
18.877147129148
20.0348681764456
22.4392470355359
26.1082838479392
28.9588225318227
24.3914996248147
24.3700348097432
25.487883485564
34.6032812265509
49.7365655689107
43.2629630267514
22.5856379194379
14.2991314845776
12.2640006522346
11.1955489401178
10.3248425955376
9.69685335085746
9.28589002485819
9.02096240182296
8.79901299267788
8.55599738406054
8.27547238285308
7.97338432588106
7.67037641762192
7.39178872843437
7.16174593652662
6.99395705551735
6.89389200659307
6.87034457231478
6.92933879549537
7.05810861331667
7.21350906948297
7.3138880981938
7.2832165283069
7.23224572058663
7.22609756717523
7.23458491597973
7.24661946985986
7.26051802378252
7.27522978352284
7.28973243044201
7.30297365650486
7.31464432870676
7.32454850698367
7.33262684078766
7.33887899471301
7.34334836893357
7.34610043755806
7.34721600800668
7.34678362017803
7.34489639842094
7.34164891248884
7.33713557124707
7.33144918233444
7.32468007873496
7.3169154036463
7.30823874530201
7.29872980432991
7.28846429010498
7.27751424108855
7.26594776125113
7.25382880908104
7.24121759107329
7.22817121698018
7.21474209663852
7.2009800620715
7.18693275426001
7.17264460419897
7.15815850294009
7.14351581709913
7.12875660282976
7.11392014758303
7.09904558934787
7.08417261102065
7.06934228860439
7.05459803436446
7.03998688519969
7.02556088272003
7.01137918828645
6.99751017411099
6.9840351643966
6.97105163245135
6.95868029333168
6.94706984050965
6.93641163065565
6.92693742005507
6.91901431207313
6.91292469964557
6.90863052152105
6.90639481545356
6.90747775694546
6.91353000544027
6.92687588282001
6.95062706527592
6.9897945405578
7.05183842700373
7.16759227280242
7.25471951143841
7.16725595308715
7.02835357465043
6.95090971249972
6.981316812846
7.1169291576456
7.33753385300353
7.62092577226308
7.9607266814598
8.3483086003583
8.77664067108282
9.24512160031114
9.77817970890768
10.3839972305267
11.059345124388
11.8021252153258
12.6068268919706
13.4338691057815
14.184095069573
14.8168143593603
15.2856067574052
15.5107050404859
15.4973894679629
15.5303461535791
16.4250999914729
18.3179775412193
21.1870487453227
23.4887339404149
20.4177994191097
20.5458645755709
21.4905297576949
28.4384932349506
43.7482954357665
42.262295576223
23.5040568853503
13.3364991701785
10.7542517068742
9.68090142765289
8.90870364423212
8.37393286020051
8.03627949861594
7.82614069433467
7.65105768216608
7.45540875411671
7.22696668893538
6.980902924273
6.73571641007076
6.51323953634642
6.33352832117898
6.20737850883356
6.13875225821509
6.13405700602032
6.19617422733664
6.31130875970405
6.44095117381708
6.51782771709063
6.48680453247425
6.44196359785826
6.43524775590373
6.44146709243121
6.45153101786603
6.46363411196695
6.4764127345241
6.48887914845212
6.50018461067787
6.51004018448214
6.51827039147761
6.52481942442461
6.52968586050183
6.53290867317193
6.53454817777443
6.53467951299659
6.53338568061664
6.53075433479059
6.52687476746084
6.52183621981495
6.51572644677829
6.50863080095671
6.50063152385539
6.49180736324466
6.48223325638662
6.47198038377699
6.46111623597431
6.44970435331621
6.43780439761528
6.42547249050386
6.41276171020626
6.39972106966093
6.38639707021745
6.3728341066224
6.35907389537315
6.34515670040175
6.33112149471276
6.31700624476611
6.30284841846054
6.2886855821277
6.27455607589209
6.26049982727413
6.24655927426274
6.23278058002808
6.21921499153206
6.2059207957267
6.19296540897185
6.18042875725147
6.16840657190817
6.15701662561163
6.14640394057927
6.13675324730553
6.12829153102078
6.12135273158794
6.11626314796308
6.11318931897557
6.11246502904901
6.11514967276077
6.12275272383492
6.13743514940568
6.1621487544823
6.2015511068158
6.26247449681191
6.37170994868607
6.46254868037202
6.40614617736964
6.29077256075029
6.21260901468917
6.21755588140053
6.30940587646789
6.47336703895165
6.69120240699248
6.95696996680033
7.26395334451395
7.60648532312229
7.98435600189645
8.4169219277705
8.91133659063972
9.46435625925116
10.0726967390753
10.7301404027504
11.4028904226348
12.011127111874
12.521650711895
12.9019540535217
13.0952953107305
13.1050451154824
13.1484959387024
13.8554421677882
15.375035972332
17.678321630479
19.5789758654301
17.4302837068439
17.6347378479776
18.4715008622175
23.6851254031879
38.3132925116116
40.7870322088217
24.9566426377859
13.0990886052325
9.7983662025181
8.6383016115568
7.912553991636
7.43023612176131
7.13365590747183
6.95351023358301
6.80525349503074
6.6391119940296
6.4450852296111
6.23705747451803
6.03169176076127
5.84797646336042
5.7027684271336
5.60468434075996
5.55651148663211
5.56263866993606
5.62357164992733
5.72524996157647
5.83361370766557
5.89325145175721
5.86400950002567
5.82553308086471
5.81947003998456
5.82477188761352
5.83383336396121
5.84481853400055
5.85628292052717
5.86731589184285
5.87721368288245
5.88571169378697
5.89265550040621
5.89799679789848
5.90173773549665
5.90391792699279
5.9045974843865
5.90385068673932
5.90175951858296
5.89841041770137
5.89389135271978
5.88829007615595
5.8816926936988
5.87418272290816
5.86584039615814
5.85674227691033
5.84696099771188
5.83656540818368
5.82562033860565
5.8141866263469
5.8023212554409
5.79007767681233
5.77750622329238
5.76465349600209
5.75156355170683
5.73827832013478
5.7248373398367
5.71127870742901
5.69763933348055
5.68395528021243
5.67026225379071
5.65659618596941
5.6429938940432
5.62949386625356
5.61613716286867
5.60296856978692
5.59003792433152
5.57740194254633
5.56512627162142
5.55328858845478
5.54198189183971
5.53132009637679
5.52144341763021
5.51252922663337
5.50479743661111
5.49855662056472
5.4941466107811
5.4918439596985
5.49204020467384
5.49566411002901
5.50409551089597
5.51933216210106
5.54414294747828
5.5828211261057
5.64163414530983
5.74373000948685
5.83486080196867
5.80239130807798
5.70873998280022
5.63478842617378
5.62440168886225
5.68586026939276
5.80893452887084
5.97884830267003
6.19024707908006
6.43777169426897
6.71681059001771
7.02743662521462
7.38528835570715
7.79666419715802
8.25860123279625
8.7673923399294
9.31667970871916
9.87739017882712
10.3843294628569
10.809945983239
11.1303572893839
11.3029676900181
11.3284430542803
11.376030956208
11.9440673031675
13.1822006376071
15.066171055988
16.6625278886828
15.112427197075
15.3540069617814
16.1174231101663
20.0035003319967
33.3834719293341
38.8555058948099
26.4989128254332
13.435060946519
9.23951773008301
7.90968636538199
7.19015473474226
6.73312816515944
6.45723174215922
6.29200278209768
6.15867323311038
6.01138928910108
5.84104544904243
5.65996561398825
5.48316433883113
5.32726341344243
5.20655830120443
5.12799240996327
5.09340979361983
5.10553417822858
5.16313525806444
5.25241606256731
5.34346604409451
5.39060840167914
5.36445416309314
5.33227775050528
5.32765145786597
5.33294513999003
5.34169655607403
5.35210593706426
5.36276157527108
5.37284240000991
5.38175520188847
5.38926252359247
5.3952318718305
5.39962569123149
5.40245337605413
5.40375911006871
5.40360660851476
5.4020729581859
5.39924255743437
5.39520384181529
5.39004643582548
5.3838593681277
5.37672964953584
5.36874132147589
5.35997477726375
5.35050639113031
5.34040838824009
5.32974882639349
5.31859140972694
5.30699567432461
5.29501716401165
5.28270775508626
5.27011603704579
5.25728699437866
5.24426295784203
5.2310840344258
5.21778806103103
5.20441138200218
5.19098917004575
5.17755580592834
5.16414536630057
5.15079219560976
5.13753155391973
5.12440037919273
5.11143816630774
5.09868806885744
5.08619818672859
5.0740232854877
5.06222679257844
5.05088366758741
5.04008363229012
5.02993626306424
5.02057637899317
5.01217369528953
5.00493982685632
4.99916264225621
4.99518060747314
4.99332716484106
4.99403264541378
4.99813661540029
5.00690416629589
5.02217768494842
5.04653654293811
5.08392033764755
5.14008146054689
5.23496116352624
5.32420963724241
5.30994968494445
5.23561414103464
5.16848823650456
5.1493825551018
5.18952363688646
5.28244494494504
5.41639143785918
5.58669783677604
5.78903455835253
6.01963222679367
6.27877357609482
6.57929567758996
6.9267669587384
7.3186061696867
7.75108557090348
8.21802148852735
8.69428495318903
9.12612364773515
9.49045329325419
9.76882313849185
9.92731263672992
9.96342965799368
10.0108929312901
10.4728960244195
11.4934598385235
13.0558721917731
14.4134066066583
13.2678690314266
13.5248671905173
14.2315166124043
17.1346073074278
28.9345632754996
36.5476429067781
27.7889910895609
14.2634043572602
9.00082262406794
7.40888954637825
6.65887164965916
6.20667661773366
5.93723431884639
5.77683473498825
5.65068366149926
5.51535409129547
5.36168200361737
5.20025031981505
5.04453354560523
4.90913758297007
4.80627051226266
4.74156092303184
4.71608686344887
4.73122637032549
4.78452405063368
4.86279034043096
4.93989434713284
4.97811648047548
4.95583011675632
4.92976065464616
4.92709148696525
4.93301163815973
4.94196567525004
4.9522321775312
4.96248634215211
4.97199710271281
4.98026047483238
4.98706803171179
4.99231015072937
4.99596270469074
4.99804529245947
4.99860979888127
4.99772655509166
4.99547834063469
4.99195465510261
4.98724843789242
4.98145328395955
4.9746616388257
4.966963391053
4.95844492355876
4.94918846026956
4.93927174824639
4.92876800864628
4.91774570874615
4.90626863456635
4.89439609639923
4.8821831564453
4.86968097250289
4.85693717515757
4.84399576981331
4.8308979385149
4.81768248559665
4.80438595033699
4.79104328009086
4.77768819964638
4.76435362546785
4.75107215625843
4.73787663973321
4.7248008112762
4.71188003725477
4.69915217289913
4.68665861947538
4.67444557164237
4.66256564429481
4.65107980261494
4.64006004146481
4.62959252012563
4.61978224884551
4.61075837666631
4.60268291294936
4.59575857819866
4.59025550089284
4.58650338174062
4.58486184884221
4.58578300410583
4.59004132112263
4.59880136174627
4.61376102728403
4.63731247876613
4.6730614182581
4.72628626140377
4.81414177262722
4.9001535431695
4.89958292580344
4.84201478889942
4.78293904255484
4.75951288106949
4.7847042657313
4.85508217957324
4.96151530294071
5.10008248429727
5.26728137527017
5.46003319909713
5.6787808211285
5.93420484027031
6.23124559610816
6.56772136912141
6.94009689590119
7.34254389956441
7.7533033009402
8.12783187347341
8.44666425083906
8.6947046269598
8.84315680074768
8.88612704939193
8.93035998626772
9.30915393011302
10.1581631737446
11.4676670684659
12.6326996419733
11.7693151788969
12.0294336485581
12.6863022799917
14.8804569802909
24.9675034301221
33.9690553089855
28.6680500530534
15.5033578999006
9.04968476161171
7.08911006508345
6.27012385804125
5.80514586579881
5.53113301326217
5.36809521363483
5.24355044932689
5.11529423291323
4.97337744822496
4.82649114840027
4.68661982651104
4.56661082702969
4.47693990638575
4.42218112379738
4.40278984041216
4.41907646664546
4.46775757502343
4.53645614587116
4.60242235841539
4.63442566537872
4.61645473540357
4.59625303253851
4.59589672433351
4.60290117445139
4.61244893955477
4.62292065954487
4.63310176535267
4.64234703401886
4.65022784986686
4.65656610383564
4.66127598369293
4.66434905145628
4.6658175719219
4.66574371130376
4.66420688657001
4.6612979220059
4.65711359982712
4.65175338715218
4.64531671029889
4.63790114485993
4.6296010294216
4.62050653141411
4.61070302621054
4.60027091078415
4.58928539682547
4.57781639341325
4.56592870396763
4.55368225572469
4.54113238332368
4.52833020258091
4.51532300484904
4.50215432861958
4.48886467096401
4.47549195302507
4.46207175253969
4.44863791689702
4.43522297161476
4.42185856434063
4.40857596296712
4.39540662105266
4.38238281002047
4.36953834701169
4.35690943308245
4.34453567149453
4.33246127480046
4.32073661081942
4.30942006215061
4.29858054189367
4.28830051516138
4.27868034701811
4.26984342958011
4.26194415590719
4.25517613140736
4.24979374470033
4.24611432316669
4.24450561657172
4.2454281429782
4.24960522087651
4.25811310431759
4.2725168202819
4.29502836561021
4.32894267600646
4.37909938014504
4.46024965377781
4.54221311352692
4.55178929231702
4.50853339598718
4.45787655419613
4.43306534370773
4.44788033603046
4.50127580061617
4.58637773667409
4.70002430922187
4.83940842676547
5.00203134483491
5.18846189200019
5.40769294976082
5.6641251640075
5.95596070593529
6.27996812541157
6.63078475100241
6.98959749118096
7.31945446726704
7.6038293747818
7.82952758456944
7.97046953384728
8.01726071413761
8.05581537103975
8.36773767182069
9.0792677872751
10.1860058719762
11.1927086820446
10.5309924826766
10.7871473648538
11.3967212511475
13.0899460903049
21.4913793003799
31.2395704320659
29.0780761935991
17.0323474666361
9.37872878274244
6.92751969005429
5.99519201234579
5.5001073025343
5.21198121445541
5.04016216135159
4.91277430819991
4.78780854793434
4.65394144876818
4.5178219196877
4.38994660911261
4.28158827488855
4.2017563391676
4.15416250504222
4.13875810276527
4.15502162975535
4.19914318037709
4.25966272224013
4.31681346571847
4.34465092619278
4.33123425352812
4.31665505266874
4.31886091689985
4.32729112916284
4.33773891704162
4.34869872556376
4.3590733519307
4.36829776210235
4.37600931937631
4.38206114303928
4.38639216504992
4.38901160646453
4.38996652113799
4.38933156328082
4.38719733888488
4.38366470827578
4.37883957459026
4.37282962833569
4.36574167770967
4.35767984740708
4.34874422097975
4.33902993194575
4.32862661226022
4.31761828321928
4.30608297407601
4.29409288218019
4.28171457332677
4.26900926438033