/*--------------------------------*- C++ -*----------------------------------*\
  =========                 |
  \\      /  F ield         | OpenFOAM: The Open Source CFD Toolbox
   \\    /   O peration     | Website:  https://openfoam.org
    \\  /    A nd           | Version:  7
     \\/     M anipulation  |
\*---------------------------------------------------------------------------*/
FoamFile
{
    version     2.0;
    format      ascii;
    class       surfaceScalarField;
    location    "7000";
    object      phi;
}
// * * * * * * * * * * * * * * * * * * * * * * * * * * * * * * * * * * * * * //

dimensions      [0 3 -1 0 0 0 0];

internalField   nonuniform List<scalar> 
30950
(
8.89255637068177e-05
-1.49193946982752e-05
8.7475776162259e-05
1.44978751996814e-06
3.25719322245347e-05
5.49038440035682e-05
-1.68959219929994e-05
4.94678540960408e-05
-3.41821285249563e-05
1.72862065336298e-05
-2.79032654055762e-05
-6.27886309420132e-06
-2.16783299109061e-05
-6.22493548625628e-06
-1.78263316664775e-05
-3.85199823929519e-06
-1.64606772126995e-05
-1.36565446638619e-06
-1.58132715539826e-05
-6.47405652601396e-07
-1.58454313003934e-05
3.21597469972997e-08
-1.6354804530579e-05
5.09373233196336e-07
-1.73016666825625e-05
9.46862147372422e-07
-1.89709464494531e-05
1.66927977086273e-06
-2.16171317882906e-05
2.64618533795328e-06
-2.53203717594495e-05
3.70323997163344e-06
-2.96788344053518e-05
4.35846264360576e-06
-3.45908919337504e-05
4.91205753081151e-06
-3.98783717914397e-05
5.28747985577561e-06
-4.51028852999801e-05
5.22451351076824e-06
-4.97808650773733e-05
4.67797977740983e-06
-5.4218208289127e-05
4.43734321202652e-06
-5.84908611230854e-05
4.27265283363507e-06
-6.20060411871801e-05
3.51518006426855e-06
-6.45746102217e-05
2.56856903464414e-06
-6.60911476784117e-05
1.51653745712065e-06
-6.65142357537812e-05
4.23088073344051e-07
-8.00083844943763e-05
1.3494148742594e-05
-9.91262502820703e-05
1.91178657864222e-05
-0.000111897781731763
1.27715314520377e-05
-0.000119883273589312
7.98549185768165e-06
-0.000124854677371815
4.97140378242085e-06
-0.000127714931602282
2.86025422983765e-06
-0.000128916392505757
1.20146090205485e-06
-0.000128764885159155
-1.51507349650232e-07
-0.000127478210424056
-1.28667473316613e-06
-0.000125231671007845
-2.24653941692773e-06
-0.000122160363138556
-3.07130786582309e-06
-0.000118383123133332
-3.77724000769748e-06
-0.000114006857171309
-4.3762659606968e-06
-0.000109129450053981
-4.87740711932336e-06
-0.000103841041645386
-5.28840840667178e-06
-9.82243012753691e-05
-5.61674037413004e-06
-9.23546989960388e-05
-5.86960227853099e-06
-8.63004775990761e-05
-6.05422139864152e-06
-8.01228304896759e-05
-6.17764710581049e-06
-7.38760470607005e-05
-6.24678343024469e-06
-6.76078217304979e-05
-6.26822532747146e-06
-6.13595960953758e-05
-6.24822563737348e-06
-5.5166995663622e-05
-6.19260043009814e-06
-4.90602827349238e-05
-6.10671292909847e-06
-4.30648545568547e-05
-5.99542817573504e-06
-3.72017334108504e-05
-5.86312114643688e-06
-3.14880656759901e-05
-5.71366773392027e-06
-2.59375844714812e-05
-5.55048120497078e-06
-2.0561080596481e-05
-5.37650387425417e-06
-1.53667776015536e-05
-5.1943029939132e-06
-1.03607922044712e-05
-5.00598539691299e-06
-5.54741832189153e-06
-4.81337388162711e-06
-9.29263496760266e-07
-4.61815482613071e-06
3.49170866404782e-06
-4.42097215934414e-06
7.71447732877123e-06
-4.22276866578618e-06
1.17392523363658e-05
-4.0247750074558e-06
1.55665674969131e-05
-3.82731516233166e-06
1.91971489804796e-05
-3.63058148429337e-06
2.26318468581051e-05
-3.43469787854181e-06
2.58714669615646e-05
-3.23962010440324e-06
2.89166241544096e-05
-3.0451571928151e-06
3.17675992568731e-05
-2.85097510331464e-06
3.44241852390769e-05
-2.65658598177631e-06
3.68855511277679e-05
-2.46136588926822e-06
3.91500539318047e-05
-2.26450280396132e-06
4.12151012791903e-05
-2.06504734784316e-06
4.30768725829135e-05
-1.86177130357873e-06
4.47301943733725e-05
-1.65332179128598e-06
4.61680461885815e-05
-1.43785181476278e-06
4.73815328139795e-05
-1.21348662546512e-06
4.83588779182938e-05
-9.77345103703224e-07
4.90857915607948e-05
-7.2691364209685e-07
4.95433498428042e-05
-4.57558282542832e-07
4.9710035451192e-05
-1.66685607604682e-07
4.95576709341839e-05
1.52364516817621e-07
4.90559307964331e-05
5.01740137822656e-07
4.81544448198372e-05
9.01485976588512e-07
4.68007489972739e-05
1.35369582255335e-06
4.48997388772275e-05
1.90101011948914e-06
4.23712761427615e-05
2.52846273524414e-06
3.90343733914109e-05
3.3369027509912e-06
3.47719672689285e-05
4.26240612294281e-06
2.92012444957823e-05
5.57072277208185e-06
2.20847435556919e-05
7.11650094025717e-06
1.2344706716929e-05
9.74003683903597e-06
5.26716832836841e-06
7.07753838947609e-06
7.93089149922624e-06
-2.66372317130104e-06
1.10261136556345e-05
-3.09522215569154e-06
1.56562922106131e-05
-4.63017855532426e-06
2.08885861763769e-05
-5.23229396547633e-06
2.68837198259391e-05
-5.99513364946622e-06
3.3852441692412e-05
-6.96872186626934e-06
4.20569900375076e-05
-8.20454834502129e-06
5.04115475326458e-05
-8.35455749502736e-06
5.88780568870705e-05
-8.46650935438816e-06
6.70697802244228e-05
-8.19172333771814e-06
7.45657161696626e-05
-7.49593594541532e-06
7.97537140772721e-05
-5.18799790679888e-06
8.37135800961672e-05
-3.9598660189963e-06
8.72328876429721e-05
-3.51930754698583e-06
9.07136683904681e-05
-3.48078075001754e-06
9.50968743071924e-05
-4.38320591414653e-06
0.000102369486285806
-7.27261197668455e-06
0.000115077727816124
-1.27082415301592e-05
0.000131313119391809
-1.6235391574917e-05
0.000152580850920341
-2.12677315276354e-05
0.000183027367956863
-3.04465170383326e-05
0.000218400857970193
-3.53734900132167e-05
0.000234565019987567
-1.61641620142745e-05
0.000183892348254889
5.06726717252527e-05
0.000118653210193875
6.52391380792852e-05
7.00680327015755e-05
4.85851775837643e-05
-3.93813636400569e-06
0.000279930827654851
-2.62050548156065e-05
0.000270581444840121
1.07991703151947e-05
0.000155596455431099
0.00016988883345807
6.50943441748063e-06
0.00019855487499364
-7.18013759626904e-05
9.55970169333585e-05
-7.04691660151165e-05
-7.61107302061564e-06
-5.69808414425241e-05
-1.97132600480428e-05
-4.86326201425919e-05
-1.22002195324921e-05
-4.56084517304955e-05
-4.38982289347818e-06
-4.481954335325e-05
-1.43631402362515e-06
-4.57056156952269e-05
9.1823208992867e-07
-4.79709866892782e-05
2.77474423117688e-06
-5.15854407329397e-05
4.56131618572828e-06
-5.72421849354287e-05
7.32602397747188e-06
-6.54255845179412e-05
1.08295849193202e-05
-7.60776517470919e-05
1.43553072012313e-05
-8.83322342875465e-05
1.66130451820264e-05
-0.000101810893011891
1.83907162570838e-05
-0.000115982883428853
1.94594702712077e-05
-0.000129982088675867
1.9223718759586e-05
-0.000143139584302979
1.78354754044676e-05
-0.000155791816424868
1.70895753340333e-05
-0.000167726422333897
1.6207258742458e-05
-0.000177922444094562
1.37112018250231e-05
-0.000186188330263194
1.08344552033352e-05
-0.000194197000500253
9.52520769444207e-06
-0.000205602815197067
1.18289027689374e-05
-0.00023275916897308
4.06505025198592e-05
-0.000261964829720956
4.83235265334873e-05
-0.000279253873170153
3.00605749025741e-05
-0.000288029681049245
1.67612997367982e-05
-0.000291679077396956
8.62080013002784e-06
-0.000291654090774965
2.83526760753236e-06
-0.00028882578863856
-1.626841235075e-06
-0.000283757944269435
-5.2193517203378e-06
-0.000276853487273527
-8.19113172804193e-06
-0.000268413422664729
-1.06866040261646e-05
-0.000258684626757603
-1.28001037711965e-05
-0.000247877342312541
-1.45845244540471e-05
-0.000236176570524172
-1.60770377483771e-05
-0.000223747033363523
-1.73069442810495e-05
-0.000210736732685289
-1.82987090838997e-05
-0.000197278597540543
-1.90748755209635e-05
-0.000183491894593399
-1.96563052252195e-05
-0.000169483103378824
-2.00630126140866e-05
-0.000155346813169981
-2.03139373127748e-05
-0.000141166490827015
-2.04271057739114e-05
-0.00012701529782653
-2.0419418326603e-05
-0.000112956882507786
-2.03066409571999e-05
-9.90461942161948e-05
-2.01032887208615e-05
-8.53302743627219e-05
-1.98226327828021e-05
-7.18490468985662e-05
-1.94766556388442e-05
-5.86360741467824e-05
-1.90760938983666e-05
-4.57192861155999e-05
-1.86304557645958e-05
-3.31216634470132e-05
-1.81481038738412e-05
-2.08618886271395e-05
-1.76362786936853e-05
-8.95480669269661e-06
-1.71013849279496e-05
2.58800062010566e-06
-1.65487927095826e-05
1.37567839195132e-05
-1.59821571804718e-05
2.45442812711624e-05
-1.54056521782432e-05
3.49457014325813e-05
-1.48223923200123e-05
4.49572522546939e-05
-1.42343194884241e-05
5.45761055198902e-05
-1.36436282725663e-05
6.38001621861449e-05
-1.30513718294356e-05
7.26277137375026e-05
-1.24581330359903e-05
8.10571618543195e-05
-1.18641459957939e-05
8.90867386520603e-05
-1.12691969025192e-05
9.67142374890441e-05
-1.06726560297264e-05
0.000103936737932159
-1.00734755467704e-05
0.000110750313510876
-9.47016156021116e-06
0.000117149729136703
-8.86078151532577e-06
0.000123128083008195
-8.24285667538029e-06
0.000128676436489852
-7.61340082972398e-06
0.000133783314861326
-6.96864967486587e-06
0.000138434220597688
-6.30422752805666e-06
0.000142610850327761
-5.61448154455405e-06
0.000146290441308658
-4.89307760644596e-06
0.000149444414274299
-4.13131806907989e-06
0.000152037530700456
-3.32003006817785e-06
0.000154025572523678
-2.44560010610094e-06
0.000155352808074815
-1.49392115817264e-06
0.000155953547669323
-4.48375077794224e-07
0.00015575339367297
7.01894134211498e-07
0.000154642719893188
2.01215975633904e-06
0.000152479870441136
3.51654527460977e-06
0.000149063042197226
5.31783836302363e-06
0.000144150593058068
7.4409118749577e-06
0.000137369876947929
1.0117618860887e-05
0.000128273658307855
1.33586247631768e-05
0.000116087409072647
1.77569720064037e-05
9.96629496021383e-05
2.35409604107635e-05
7.74656359609387e-05
3.19373504804432e-05
6.0356665123681e-05
2.41865092273467e-05
6.07124423638874e-05
-3.01950041191885e-06
6.62755504064221e-05
-8.65833019770282e-06
7.51619109856673e-05
-1.35165391348614e-05
8.56876503820195e-05
-1.57580333616987e-05
9.78722001068572e-05
-1.81796833743116e-05
0.000112101663549807
-2.11981853090732e-05
0.000128665051424681
-2.47679362199131e-05
0.000146174636689382
-2.58641427596759e-05
0.000164237622204423
-2.65294948693942e-05
0.000182246291360402
-2.62003924940099e-05
0.000199258735920193
-2.45083805057099e-05
0.000212811157977031
-1.87404199630153e-05
0.000223576431635821
-1.47251396779986e-05
0.000232649893134621
-1.2592769045953e-05
0.000241039152528183
-1.18700401452128e-05
0.000250476574766099
-1.38206281508949e-05
0.000264700095765038
-2.14961329740693e-05
0.000288534031829943
-3.65421775952025e-05
0.000321056387146371
-4.8757746890962e-05
0.000364798826443475
-6.50101708239699e-05
0.000425230951739792
-9.08786423364966e-05
0.000499132871919237
-0.000109275410192727
0.00055318890278401
-7.0220192876349e-05
0.000512398707507701
9.14628669946077e-05
0.000406317145275314
0.000171320700324426
0.000298111243315406
0.000156791079604516
2.55279393738786e-05
0.000442762645658472
-1.7559404076255e-05
0.00042709434782357
2.64674681397254e-05
0.000298463134388401
0.000298520046920682
7.81081693807096e-05
0.000418909839934617
-7.68599643785724e-05
0.000250565150702884
-0.000100632761154072
1.61617237731953e-05
-8.60573288508691e-05
-3.42886923416789e-05
-7.58518278572328e-05
-2.24057205203053e-05
-7.22828769877196e-05
-7.95877377455443e-06
-7.21767502292989e-05
-1.5424407772615e-06
-7.4498022242734e-05
3.23950410393984e-06
-7.89902080732517e-05
7.26693006469234e-06
-8.56641052507907e-05
1.12352133591727e-05
-9.53994870479519e-05
1.7061405777692e-05
-0.000108590013470146
2.40201113406529e-05
-0.000124747748562533
3.0513042293874e-05
-0.00014255945341001
3.44247500280723e-05
-0.000161218820434557
3.705008328293e-05
-0.000179831147927055
3.80717977627129e-05
-0.000197405403005472
3.67979738390687e-05
-0.000213484311419669
3.39143838186281e-05
-0.000228426935669661
3.20321995841552e-05
-0.00024203520913799
2.98155322106329e-05
-0.000253703719014717
2.53797117018306e-05
-0.000263812654099385
2.09433902881105e-05
-0.000274515150783962
2.02277043791498e-05
-0.000289868834798397
2.71825867827135e-05
-0.000315365363738577
6.61470314606215e-05
-0.000338511340605638
7.14695034001695e-05
-0.00035046638021104
4.20156145086175e-05
-0.000354960383960947
2.12553034867483e-05
-0.000354775672467693
8.43608863672241e-06
-0.000351100360314982
-8.40044545310999e-07
-0.000344752869203122
-7.97433234730983e-06
-0.000336241670380684
-1.37305505435359e-05
-0.000325933765614027
-1.84990364942146e-05
-0.000314116232677992
-2.2504136962393e-05
-0.000301033418627369
-2.58829178210358e-05
-0.000286894539469543
-2.87234036124399e-05
-0.000271885112112071
-3.10864651055528e-05
-0.000256170820643009
-3.30212357505644e-05
-0.000239900868217908
-3.45686615085878e-05
-0.000223209482996834
-3.57662607429473e-05
-0.000206217240244598
-3.6648547977288e-05
-0.000189031938515067
-3.72483143440095e-05
-0.000171749461629529
-3.75964141975286e-05
-0.000154454557252454
-3.77220101512396e-05
-0.000137221638328068
-3.76523372504075e-05
-0.000120115579875621
-3.74126994101658e-05
-0.00010319252377957
-3.70263448165393e-05
-8.65006719322311e-05
-3.6514484630193e-05
-7.00810708841936e-05
-3.58962566864267e-05
-5.39683702903218e-05
-3.51887944922664e-05
-3.81915479477689e-05
-3.44072781069514e-05
-2.27745998078699e-05
-3.35650520138379e-05
-7.73711858962392e-06
-3.26737599117818e-05
6.90495287026119e-06
-3.17434563876579e-05
2.11386902768358e-05
-3.07825301161199e-05
3.49540205434748e-05
-2.97974874469304e-05
4.83430826508224e-05
-2.87947142858168e-05
6.12997483735571e-05
-2.77790580424612e-05
7.38193008503376e-05
-2.67538719654372e-05
8.58979587814963e-05
-2.57222862037062e-05
9.75326173704695e-05
-2.46860304187818e-05
0.000108720521089134
-2.36460367548673e-05
0.000119458947961943
-2.26025728688183e-05
0.00012974491592134
-2.15551648621372e-05
0.00013957488977514
-2.0502629883576e-05
0.000148944480157665
-1.94430659295318e-05
0.000157848126442422
-1.83738078449136e-05
0.000166278753719041
-1.72914087920513e-05
0.000174227388117187
-1.61914910735607e-05
0.000181682719961146
-1.50687326737858e-05
0.000188630583574919
-1.39165132886232e-05
0.000195053346813698
-1.27269907670626e-05
0.000200929140925003
-1.14902756557518e-05
0.000206230946504511
-1.01948831859776e-05
0.000210925371645889
-8.82574321032927e-06
0.0002149712052031
-7.36586362534121e-06
0.000218317458637578
-5.79185354079085e-06
0.000220901001560615
-4.07746408096317e-06
0.000222644290333325
-2.19166385052746e-06
0.000223452039604638
-1.05855137055584e-07
0.000223199176763797
2.26502259715576e-06
0.000221721560086329
4.99416195208707e-06
0.000218799391463671
8.24000698549068e-06
0.000214143972170376
1.20963311685004e-05
0.000207354725961535
1.69068650696078e-05
0.000197872522825012
2.28408278998859e-05
0.000184892606059374
3.07368887717608e-05
0.000167034672131466
4.13988943386815e-05
0.00014258581392786
5.6386208684153e-05
0.000121899420557271
4.48729025982415e-05
0.000117455511111908
1.42440903329661e-06
0.000121359107052007
-1.25619261375388e-05
0.000129847852757461
-2.2005284840421e-05
0.000141088421406503
-2.69986020106237e-05
0.000154704293978624
-3.17955559463278e-05
0.000171021523576955
-3.75154149073221e-05
0.000190225095996012
-4.39715086389499e-05
0.000211200367405615
-4.68394141692633e-05
0.00023329277703722
-4.86219045009678e-05
0.000255858830582427
-4.87664460392975e-05
0.00027780455736928
-4.6454107292693e-05
0.000296834408670675
-3.77702712640215e-05
0.000312914911355504
-3.080564236288e-05
0.000326967411085001
-2.66452687754737e-05
0.00034010695131308
-2.50095803740592e-05
0.000354100567191171
-2.78142440281889e-05
0.000372871990731816
-4.02675565137466e-05
0.000401673874781865
-6.53440616453234e-05
0.000440977900689982
-8.80617727988385e-05
0.000492943671222458
-0.000116975941355965
0.000561686747653663
-0.000159621718768878
0.000645362838318196
-0.000192951500857381
0.00071738663259417
-0.000142243987150666
0.000711197718531789
9.76517810523291e-05
0.000625125371184012
0.000257393047680357
0.00050996278989138
0.000271953660933126
8.4082432844423e-05
0.000557211394808407
5.56242296588522e-06
0.000538200397775306
4.54784651650559e-05
0.000419841833203771
0.000416878611506563
0.000172498772280982
0.000666252900806951
-4.76216415746059e-05
0.000470685564574839
-0.000112614713602805
8.11547958110958e-05
-0.000105092968675856
-4.18104372612033e-05
-9.5968610424821e-05
-3.15300787664638e-05
-9.32731543981646e-05
-1.06542298105923e-05
-9.46216218574929e-05
-1.93973314644372e-07
-9.87518947814793e-05
7.36977702860113e-06
-0.000105444792420709
1.39598277066121e-05
-0.000114686098076939
2.04765190122576e-05
-0.00012723526665115
2.96105743540887e-05
-0.000143146014745322
3.99308594341953e-05
-0.000161508675632293
4.8875703181035e-05
-0.000180870194734866
5.37862691296929e-05
-0.000200378079032849
5.65579675816286e-05
-0.000219247803193364
5.6941521922661e-05
-0.000236782181171979
5.43323518182303e-05
-0.000252857652894453
4.99898555410771e-05
-0.000267839921153644
4.70144678434003e-05
-0.000281544854947871
4.35204660047768e-05
-0.00029361427049015
3.74491272441681e-05
-0.00030455625545573
3.18853752537065e-05
-0.000316142086614361
3.18135355378299e-05
-0.000331795877426396
4.28363775944253e-05
-0.000353729533989108
8.80806880236634e-05
-0.000371869200594707
8.96091700055594e-05
-0.000380482807580177
5.06292214944068e-05
-0.000382667927493151
2.34404233997396e-05
-0.000380543879187143
6.31204033070901e-06
-0.00037509853849088
-6.28538524163082e-06
-0.000367059838611978
-1.60130322263618e-05
-0.000356887192773302
-2.39031963825929e-05
-0.000344936487463279
-3.0449741803969e-05
-0.000331485714788162
-3.5954909637617e-05
-0.000316774752689359
-4.05938799194371e-05
-0.000301010912845561
-4.44872434565135e-05
-0.000284379357557788
-4.77180203931588e-05
-0.000267046232881052
-5.0354360427531e-05
-0.000249161672551772
-5.24532218376284e-05
-0.000230861114093978
-5.40668192011834e-05
-0.000212266476138424
-5.52431859327253e-05
-0.000193486968871189
-5.60278216114423e-05
-0.000174619891276241
-5.64634917920703e-05
-0.00015575138086765
-5.65905205599905e-05
-0.000136957185459332
-5.64465326584633e-05
-0.00011830344681807
-5.60664380516369e-05
-9.98474929049524e-05
-5.54822987294774e-05
-8.16386274624986e-05
-5.47233500727009e-05
-6.37189111822519e-05
-5.3815972966538e-05
-4.61239223229782e-05
-5.27837833515185e-05
-2.88834830746308e-05
-5.16477173551969e-05
-1.20223400448464e-05
-5.04261950436936e-05
4.43917421133724e-06
-4.91352741678959e-05
2.04844222405275e-05
-4.77887044167638e-05
3.6100011173422e-05
-4.63981190490078e-05
5.12753959976818e-05
-4.49728722710994e-05
6.60021898565714e-05
-4.35215081447797e-05
8.02738094686128e-05
-4.20506776543479e-05
9.40851136796522e-05
-4.05651761765298e-05
0.000107431917758598
-3.90690902825984e-05
0.000120310714576367
-3.75648272366766e-05
0.000132718348517926
-3.60536706964685e-05
0.000144651686218996
-3.45359105699424e-05
0.00015610731462696
-3.3010793270133e-05
0.000167081237512067
-3.14765527686476e-05
0.000177568564346748
-2.99303927642448e-05
0.000187563184275677
-2.8368427773773e-05
0.000197057410132705
-2.67856346491032e-05
0.000206041586878324
-2.51756678191728e-05
0.000214503636161069
-2.35307819565101e-05
0.000222428536066664
-2.18414131941652e-05
0.000229797678442848
-2.00961331433082e-05
0.000236588120369542
-1.82807175823953e-05
0.000242771601673735
-1.63783644901902e-05
0.000248313407248911
-1.43675487854401e-05
0.000253170758841657
-1.22232152180446e-05
0.000257291024964737
-9.91211966400202e-06
0.00026060934607059
-7.39578518663116e-06
0.000263043790711894
-4.62610849184439e-06
0.000264493218263596
-1.5552826887175e-06
0.000264830789665243
1.92745119551004e-06
0.000263889328985175
5.93562263213048e-06
0.000261452137926762
1.06771980437568e-05
0.000257227592188776
1.63208769066244e-05
0.00025082894248021
2.33055147781037e-05
0.000241698003762353
3.19717666178323e-05
0.000229092440249107
4.33424522847941e-05
0.000211760288442843
5.87310461449699e-05
0.000188023777147326
8.01227199796935e-05
0.000166592805622688
6.63038741230406e-05
0.000159137336202636
8.87987845322029e-06
0.000161049704573715
-1.4474294508504e-05
0.000168343367647053
-2.92989479138014e-05
0.000179166302466249
-3.7821536829796e-05
0.00019285699395309
-4.54862474331791e-05
0.000209609551648178
-5.42679726023974e-05
0.000229503450271431
-6.38654072621998e-05
0.000251591835635682
-6.89277995335221e-05
0.000275117400439288
-7.21474693045618e-05
0.000299417970935226
-7.30670165353264e-05
0.000323364090717115
-7.04002270747974e-05
0.000344899470547471
-5.93056510941975e-05
0.000363679455784238
-4.9585627599749e-05
0.000380485181483375
-4.3450994474673e-05
0.000396407103989505
-4.09315028806008e-05
0.000413126986695834
-4.45341267344056e-05
0.00043435347155738
-6.14940413747734e-05
0.000465137498002872
-9.6128088090969e-05
0.000506717606811981
-0.000129641881607903
0.000560959522557322
-0.000171217857101031
0.000630917222985424
-0.000229579419197821
0.000715286858511847
-0.000277321136383924
0.000791652480787608
-0.000218609609425322
0.000806332535809483
8.29717260272183e-05
0.000747348612346639
0.000316376971147605
0.000648038734418826
0.000371263538880925
0.000151787945398995
0.000641195744101009
3.51879406529826e-05
0.000619961994991064
6.67122142711386e-05
0.000516810600414925
0.000520030006093785
0.000269851725672458
0.000913211775519862
4.48450992786866e-06
0.000736052780325474
-0.000107151716947875
0.000192791022695022
-0.000113830302378986
-3.51318518247092e-05
-0.000107696409302021
-3.76639718402979e-05
-0.000106534471595678
-1.18161675222898e-05
-0.000109587554448485
2.85910954009435e-06
-0.000115431941753839
1.3214164334136e-05
-0.000123860687257312
2.23885732115271e-05
-0.000134789522972795
3.14053547258326e-05
-0.000148793661173552
4.36147125561038e-05
-0.000165716452654844
5.6853650915081e-05
-0.000184555651363458
6.77149018897959e-05
-0.000204038722594837
7.32693403605545e-05
-0.000223466923520801
7.59861685081062e-05
-0.000242221850183482
7.56964485850185e-05
-0.000259781017163664
7.18915187987818e-05
-0.000276109561741866
6.63184001192848e-05
-0.00029146854940043
6.23734555020129e-05
-0.000305636072916596
5.76879895209045e-05
-0.000318338187063712
5.01512413913211e-05
-0.00033003639617177
4.35835843617821e-05
-0.000342079014819525
4.38561541856398e-05
-0.000357241617159451
5.79989799341509e-05
-0.000376383515519576
0.000107222586384004
-0.000391347357818235
0.000104573012304088
-0.000398012640042063
5.72945037184308e-05
-0.000398865186926468
2.42929702841476e-05
-0.000395596976608236
3.04383001248168e-06
-0.000389081460746665
-1.28009011032503e-05
-0.000379991056933273
-2.51034360398572e-05
-0.000368763230261206
-3.51310230548967e-05
-0.000355746125221763
-4.3466846843263e-05
-0.000341215487132895
-5.04855477265498e-05
-0.000325410767402741
-5.63985996493477e-05
-0.000308540438847927
-6.13575720115136e-05
-0.000290791538258814
-6.54669209821792e-05
-0.000272332450090655
-6.88134485958456e-05
-0.000253315675112697
-7.14699968154659e-05
-0.000233879044565244
-7.35034497489304e-05
-0.000214146811177717
-7.49754193201975e-05
-0.000194230423518422
-7.59442092708577e-05
-0.000174229289801797
-7.64646255084489e-05
-0.00015423151481489
-7.65882955469905e-05
-0.000134314660875515
-7.6363386597671e-05
-0.000114546529941974
-7.58345689853194e-05
-9.4985956277024e-05
-7.50428723943102e-05
-7.56836013549287e-05
-7.4025704994829e-05
-5.66827411123376e-05
-7.28168332090184e-05
-3.80200353870388e-05
-7.14464890768267e-05
-1.97262628268054e-05
-6.99414899153767e-05
-1.82700682235824e-06
-6.83254510481778e-05
1.56565984126335e-05
-6.6618879402848e-05
3.27072875111443e-05
-6.48393935152374e-05
4.93111628042867e-05
-6.30019943421371e-05
6.54571620720792e-05
-6.11188715388414e-05
8.1136472073921e-05
-5.92008181466874e-05
9.6342121134072e-05
-5.72563267144299e-05
0.000111068613819972
-5.52916688625197e-05
0.000125311454727677
-5.33119311903195e-05
0.000139066846217726
-5.13202187268535e-05
0.000152331355810214
-4.93181802890276e-05
0.000165101578604176
-4.7306133363991e-05
0.000177373826914915
-4.52830415809581e-05
0.000189143818093137
-4.32465439468928e-05
0.00020040635526727
-4.11929299384543e-05
0.000211154993650648
-3.91170661571506e-05
0.00022138167594341
-3.70123169419306e-05
0.000231076334236717
-3.48703261124924e-05
0.000240226424781421
-3.26808725012467e-05
0.000248816404323271
-3.04313927360138e-05
0.000256827074583808
-2.81068034039035e-05
0.000264234839664465
-2.56884826630272e-05
0.000271010702135502
-2.31542269612495e-05
0.000277119156516769
-2.04760031666822e-05
0.000282516539314807
-1.76205980160454e-05
0.000287149292269573
-1.45448726188322e-05
0.00029095149251851
-1.11979854354798e-05
0.000293839976155021
-7.51459212836203e-06
0.000295709671979486
-3.42497851319188e-06
0.000296432017423819
1.20510575116029e-06
0.000295840818683928
6.52682137201739e-06
0.000293722839776275
1.27951769513388e-05
0.000289790237991368
2.02534786916249e-05
0.000283670068914187
2.94256838552346e-05
0.000274824646392136
4.08171891399159e-05
0.000262565218646486
5.56018800303313e-05
0.000245794787280116
7.55014775113677e-05
0.000222987386095738
0.000102930121164119
0.000201610110797603
8.7681149421289e-05
0.000192467411680021
1.80225775707579e-05
0.000192852458892904
-1.48593417212954e-05
0.00019911461441927
-3.55611034401885e-05
0.000209442691973274
-4.81496143837522e-05
0.000223010521401412
-5.90540768613045e-05
0.000239894780968836
-7.11522321697899e-05
0.000260082463421537
-8.40530897148911e-05
0.000282697709717145
-9.15430458291049e-05
0.000306937591959797
-9.63873515471948e-05
0.000332107533711948
-9.82369582874962e-05
0.000357048526827844
-9.53412201907338e-05
0.000379860144018827
-8.21172682850324e-05
0.000400086027207342
-6.98115107882901e-05
0.0004184252744307
-6.17902416979966e-05
0.000435939321170112
-5.84455496202007e-05
0.000454276035057918
-6.28708406219678e-05
0.000476989151142417
-8.4207157458897e-05
0.000508891497924366
-0.000128030434872938
0.000551595568188112
-0.000172345951871569
0.000606868315750122
-0.000226490604662856
0.000677113539898143
-0.000299824643346367
0.000760892129407603
-0.000361099725893487
0.00083719099229921
-0.000294908472316281
0.00086054776699801
5.9614951326288e-05
0.000818653956049932
0.000358270782098771
0.000736445992586571
0.000453471502358183
0.000217412676188598
0.000707786169267215
6.649971851575e-05
0.000685408737535288
8.90896459986209e-05
0.000596880568864172
0.000608558174770674
0.000362966731537988
0.00114712561281793
6.88047854733177e-05
0.00103021472640084
-8.90972517716351e-05
0.000350693059943746
-0.000115811886915867
-8.4172166765864e-06
-0.000113755054430201
-3.97208043234014e-05
-0.000114067738754421
-1.15034832022797e-05
-0.000118593592187903
7.38496297481138e-06
-0.000125855693820254
2.04762659668911e-05
-0.000135618593307346
3.21514726999654e-05
-0.000147731765229612
4.35185266467243e-05
-0.000162636685655475
5.85196329828473e-05
-0.000180107292417757
7.43242576769929e-05
-0.000199199913610271
8.68075230823816e-05
-0.000218841251933135
9.29106786830577e-05
-0.000238443339396691
9.55882559719204e-05
-0.000257472780569391
9.47258897574882e-05
-0.000275469823104376
8.98885613339918e-05
-0.000292386284438411
8.32348614533048e-05
-0.000308380761062667
7.83679321262823e-05
-0.000323201982702494
7.25092111607e-05
-0.000336603421940535
6.35526806293724e-05
-0.000348962039170661
5.59422015919125e-05
-0.000361286929989165
5.61810450041787e-05
-0.000375820300874888
7.2532350819741e-05
-0.00039278940030598
0.000124191685815237
-0.000405480980010664
0.00011726459200868
-0.000410771263139107
6.25847868469964e-05
-0.000410667833110468
2.41895402555071e-05
-0.00040655782763709
-1.06617546090286e-06
-0.000399237183184912
-2.01215455554416e-05
-0.000389336666234791
-3.50039529900413e-05
-0.000377279517079416
-4.71881722104346e-05
-0.00036340959674609
-5.73367671764823e-05
-0.00034800306429241
-6.58920801802691e-05
-0.000331300836802296
-7.31008271393024e-05
-0.000313513945757715
-7.91444630562137e-05
-0.000294832327416773
-8.4148539323051e-05
-0.000275427415226505
-8.82183607862082e-05
-0.00025545472714182
-9.14426849000559e-05
-0.000235055018027785
-9.39031588631543e-05
-0.000214355312187694
-9.56751251602408e-05
-0.000193469656809287
-9.68298646493435e-05
-0.000172499867419572
-9.74344148980019e-05
-0.000151536260582772
-9.75519023838499e-05
-0.000130658413191419
-9.72412339889189e-05
-0.000109935949072377
-9.65570331044449e-05
-8.94293382673274e-05
-9.55494831992821e-05
-6.91907017272377e-05
-9.42643415349468e-05
-4.92646091598748e-05
-9.2742925776326e-05
-2.96888604944398e-05
-9.10222377422579e-05
-1.04952262867173e-05
-8.9135124123062e-05
8.28980347087418e-06
-8.71104808058107e-05
2.66443344138233e-05
-8.49734103457729e-05
4.45504842366587e-05
-8.27455433380526e-05
6.19937959896407e-05
-8.04453060951157e-05
7.89627202543057e-05
-7.80877958034616e-05
9.54480277054431e-05
-7.56861255978357e-05
0.000111442383634516
-7.32506826434434e-05
0.000126939968576385
-7.07892538044035e-05
0.000141936007601132
-6.83079702150316e-05
0.000156426449387537
-6.58106605132913e-05
0.000170407624584473
-6.3299355485959e-05
0.000183875901105062
-6.07744098845941e-05
0.000196827365171223
-5.82345056471093e-05
0.000209257500832203
-5.56766796078514e-05
0.000221160862902479
-5.30962920087427e-05
0.000232530735668837
-5.04869389234687e-05
0.000243358760634643
-4.78403419077398e-05
0.00025363453138246
-4.51460968603074e-05
0.000263345120666715
-4.23914617854887e-05
0.000272474551071912
-3.95608231411798e-05
0.000281003131739074
-3.66353840710826e-05
0.000288906714244249
-3.35920651681777e-05
0.000296155680710151
-3.04031934271501e-05
0.000302713846322399
-2.70341687789075e-05
0.000308536802571031
-2.34435542646645e-05
0.000313570196176335
-1.95782662242002e-05
0.000317747158604263
-1.53749478633102e-05
0.000320983878876243
-1.07513124003376e-05
0.000323173537174595
-5.61463681152393e-06
0.000324186071657202
1.92571268552477e-07
0.000323855744239523
6.85714878968886e-06
0.000321972267907079