7 	0.0118766634903468 	1.73472347597681e-17 	-0.0154477647051878 	-6.06078829638948e-07 	1.55730655405624e-19
7 	0.0201339998195326 	1.90819582357449e-17 	-0.0120849909640581 	7.79726052985238e-05 	1.19594894583733e-20
7 	0.0286938265600376 	2.25514051876985e-17 	-0.00546781136328821 	0.000129110880438368 	-4.70162699848655e-20
7 	0.0375672248214896 	2.25514051876985e-17 	0.000566208502598001 	0.000164696299847612 	-4.5016521080059e-21
7 	0.0467656816470147 	2.25514051876985e-17 	0.00578212414390329 	0.000182147728972755 	1.48904677630868e-20
6.99999999999999 	0.0563011048837713 	2.08166817117217e-17 	0.0105072525955025 	0.000180577940502397 	-1.54230437223523e-23
7 	0.0661858385982334 	1.21430643318376e-17 	0.0149577961662894 	0.000160306627932737 	-1.68091633746679e-20
7 	0.0764326790561828 	0 	0.0192601634553328 	0.000121876578115854 	-1.38629266747451e-20
7 	0.0870548912880936 	-3.46944695195361e-18 	0.023493766240057 	6.56679878351608e-05 	4.7484497624308e-23
7 	0.0980662262613554 	3.46944695195361e-18 	0.0277129679813035 	-8.08732964378955e-06 	1.12429680718452e-20
7 	0.109480938681567 	1.04083408558608e-17 	0.0319580241537022 	-9.92363245615505e-05 	-2.41033428922451e-20
6.99999999999999 	0.121313805445942 	1.04083408558608e-17 	0.0362608800188011 	-0.000207658775399184 	-1.32921341680159e-21
6.99999999999999 	0.133580144772717 	6.93889390390723e-18 	0.0406484608622897 	-0.000333235618605035 	1.32998893420493e-23
6.99999999999999 	0.146295836031327 	3.46944695195361e-18 	0.0451446621273289 	-0.000475822583021127 	8.96409903306765e-21
6.99999999999999 	0.159477340299017 	3.46944695195361e-18 	0.0497716279664632 	-0.000635225742995394 	-6.93830053570194e-22
7 	0.173141721670501 	6.93889390390723e-18 	0.0545506208431335 	-0.000811177406980787 	-3.26241831002912e-22
7 	0.187306669348262 	6.93889390390723e-18 	0.0595026455190064 	-0.00100331123146296 	-1.77978461025587e-20
7 	0.20199052054208 	6.93889390390723e-18 	0.0646489225312289 	-0.00121113555082071 	-1.7578740678905e-20
7 	0.217212284207436 	6.93889390390723e-18 	0.0700112672089232 	-0.00143400410465403 	2.83473585331814e-22
7 	0.232991665653523 	1.04083408558608e-17 	0.0756124087169096 	-0.0016710835221885 	2.31150481450694e-22
7 	0.249349092052728 	1.04083408558608e-17 	0.0814762709128048 	-0.00192131698558194 	1.70025098688336e-20
7 	0.266305738884589 	0 	0.0876282289379988 	-0.0021833835442251 	1.71832327636662e-20
7 	0.283883557348484 	-6.28837260041593e-18 	0.0940952937761056 	-0.002455155288768 	1.72487970643349e-20
7 	0.302105302780516 	-1.01915004213637e-17 	0.100907432239774 	-0.00273283352099568 	4.82220475845212e-22
7 	0.320994564111403 	-1.43114686768087e-17 	0.108096858206241 	-0.00301556649018333 	2.1115142094843e-22
7 	0.340575794403482 	-1.56125112837913e-17 	0.115697267051921 	-0.00330046412091235 	-2.81448572408603e-21
7 	0.360874342506392 	-1.47451495458029e-17 	0.123744952793225 	-0.00358408091508945 	-4.09583723291928e-21
7 	0.38191648587238 	-1.64798730217797e-17 	0.132278994766072 	-0.00386233944096693 	-2.70700455312104e-20
7 	0.403729464573739 	-2.08166817117217e-17 	0.141341420354881 	-0.00413044848222767 	9.97612602728533e-22
7 	0.426341516566396 	-2.60208521396521e-17 	0.150977332465145 	-0.00438281673435974 	4.88566752191194e-21
7 	0.44978191424532 	-2.94902990916057e-17 	0.161234986743196 	-0.00461296273520048 	2.59306176738529e-20
7 	0.474081002339049 	-2.42861286636753e-17 	0.17216579956975 	-0.00481342177466023 	-3.29671733418193e-21
7 	0.499270237192413 	-2.42861286636753e-17 	0.183824262232781 	-0.0049756628931986 	-1.80475100623735e-21
7 	0.525382227488298 	-2.77555756156289e-17 	0.196267726026879 	-0.00509004879974765 	2.53955454510157e-20
7 	0.552450776461161 	-2.42861286636753e-17 	0.209556033497294 	-0.00514567729701602 	-9.97738460399492e-22
7 	0.580510925656956 	-1.73472347597681e-17 	0.223751119858753 	-0.0051292681052994 	7.70740432664583e-21
7 	0.609599000296117 	-1.04083408558608e-17 	0.238921014391315 	-0.00502747604051359 	1.72037126033322e-20
7 	0.639752656298308 	-6.93889390390723e-18 	0.255201865942937 	-0.00483717837332553 	-2.38601895144291e-20
7 	0.671010929029843 	-3.46944695195361e-18 	0.272973074958267 	-0.00456196256490654 	2.11569396955991e-20
7 	0.703414283836854 	-1.04083408558608e-17 	0.292689708477391 	-0.004201541285866 	2.06620990793462e-16
7 	0.737004668429647 	-1.38777878078145e-17 	0.31457729516999 	-0.00374332373876693 	2.79527891099226e-16
7 	0.761419519668443 	-6.93889390390723e-18 	0.331258607699015 	-0.00335316677003887 	-1.29064232210713e-16
7 	0.779162313841552 	-4.55364912443912e-18 	0.343793454141389 	-0.00303110026020484 	-3.75261986528658e-16
6.99999999999999 	0.807992742715646 	4.55364912443912e-18 	0.364637332697164 	-0.00244704963618239 	-2.29349364954751e-16
6.99999999999999 	0.845475280399477 	9.10729824887824e-18 	0.39249806524128 	-0.00157913833658145 	2.47443506403485e-20
6.99999999999999 	0.884326557652535 	8.67361737988404e-18 	0.422015435273363 	-0.000558792299767188 	1.74774859335174e-20
6.99999999999999 	0.924596372923087 	3.46944695195361e-18 	0.453018898714513 	0.000608910896606209 	3.70753256332231e-20
6.99999999999999 	0.966336321272196 	-3.46944695195361e-18 	0.485346396926274 	0.00191487172564875 	-7.41466203800032e-20
6.99999999999999 	1.00959985787075 	-5.20417042793042e-18 	0.518813771468336 	0.00334551383908837 	4.20120151785947e-20
6.99999999999999 	1.05444236361788 	-6.93889390390723e-18 	0.553183869588561 	0.00488030349418254 	4.87808364353094e-21
6.99999999999999 	1.10092121293912 	-3.46944695195361e-18 	0.588149963236674 	0.00648905921813248 	1.25706400328137e-19
6.99999999999999 	1.14909584382294 	0 	0.623340747547688 	0.00813090914302469 	-1.17720051581649e-20
7 	1.19902783015393 	-3.46944695195361e-18 	0.658345533407588 	0.00975572095897668 	7.87127810659936e-20
7 	1.25078095640108 	-8.45677694538693e-18 	0.692752202307773 	0.0113102669507585 	-8.99221610952566e-20
7 	1.30442129471847 	-1.01915004213637e-17 	0.72614358415894 	0.0127420184458702 	-1.51841489049584e-19
7 	1.36001728451516 	-1.04083408558608e-17 	0.758154758986825 	0.0139867453339037 	-1.57551292215914e-20
7 	1.41763981454947 	-1.38777878078145e-17 	0.78857523899383 	0.0150094789715513 	-2.96704900548798e-20
7 	1.47736230760124 	-1.56125112837913e-17 	0.817320855208081 	0.0157924361105339 	-4.97693288220219e-16
7 	1.53926080777324 	-1.04083408558608e-17 	0.844398225219516 	0.0163329666321321 	-3.40689222306129e-15
7 	1.60341407047001 	-1.38777878078145e-17 	0.869863947127657 	0.0166377221200449 	2.81756072244377e-15
7 	1.66893489902569 	-1.04083408558608e-17 	0.893447381692771 	0.0167192454500865 	1.05120395104879e-15
7 	1.7027752979414 	-2.54787510534094e-18 	0.905027910231964 	0.0167025293576332 	2.90170905679263e-17
7 	1.73884798288128 	2.65629532258949e-18 	0.916239687694659 	0.016595485897005 	-1.25016787560757e-19
7 	1.81031024575141 	1.04083408558608e-17 	0.937234038073889 	0.0162789407845933 	-1.95210691734232e-19
7 	1.88432958821743 	1.04083408558608e-17 	0.956652642771612 	0.0157708747673615 	3.46042341633995e-20
7 	1.9609947218388 	1.90819582357449e-17 	0.974047231267179 	0.0150697591928373 	7.74390247960997e-21
7 	2.02024009608346 	2.77555756156289e-17 	0.986282050365851 	0.014467713157266 	5.580974849396e-22
7 	2.06000503604194 	3.46944695195361e-18 	0.994171241631028 	0.0140584833922086 	0
7 	2.09836474743796 	3.46944695195361e-18 	1.00117398629287 	0.0136650007165926 	0
7 	2.13536888877258 	3.46944695195361e-18 	1.00760909522562 	0.0132879694529162 	0
7 	2.17106536369585 	3.46944695195361e-18 	1.01350566566682 	0.0129243093900316 	0
7 	2.20550038302044 	3.46944695195361e-18 	1.01889364554923 	0.0125716516609103 	0
7 	2.23871852454378 	3.46944695195361e-18 	1.02380263413197 	0.0122289428751837 	0
7 	2.27076279075613 	0 	1.02826089995973 	0.0118954962607162 	0
7 	2.30167466450941 	-3.46944695195361e-18 	1.03229475910608 	0.0115708505088359 	0
7 	2.33149416271872 	-6.93889390390723e-18 	1.03592822027756 	0.011254705176653 	0
7 	2.36025988816627 	-1.38777878078145e-17 	1.03918280218154 	0.010946853076023 	0
7 	2.38800907947441 	-2.08166817117217e-17 	1.04207745901011 	0.010647133341449 	0
7 	2.41477765931295 	-2.08166817117217e-17 	1.04462857030264 	0.0103554024110129 	0
7 	2.44060028090272 	-1.73472347597681e-17 	1.04684996556573 	0.0100715166884112 	0
7 	2.46551037287586 	-1.90819582357449e-17 	1.048752964072 	0.00979532299041927 	0
7 	2.48954018255081 	-2.08166817117217e-17 	1.05034641719797 	0.00952665414368909 	0
7 	2.512720817678 	-1.73472347597681e-17 	1.05163674543756 	0.00926532786156254 	0
7 	2.53508228671037 	-1.38777878078145e-17 	1.05262796560707 	0.0090111476157683 	0
7 	2.55665353765073 	-1.38777878078145e-17 	1.05332170628938 	0.00876390463965168 	0
7 	2.57746249552636 	-1.38777878078145e-17 	1.05371721163594 	0.00852338048929809 	0
7 	2.59753609853934 	-1.38777878078145e-17 	1.05381133552988 	0.00828934978278981 	0
7 	2.61690033293929 	-1.73472347597681e-17 	1.05359853000172 	0.00806158286310178 	0
7 	2.63558026666389 	-2.08166817117217e-17 	1.05307083379746 	0.00783984820620598 	0
7 	2.65360008179049 	-2.08166817117217e-17 	1.05221786916692 	0.00762391443703117 	0
7 	2.67098310584102 	-2.42861286636753e-17 	1.05102685721027 	0.00741355183288265 	0
7 	2.68775184198056 	-2.77555756156289e-17 	1.04948266431345 	0.00720853319576933 	0
7 	2.70392799814879 	-2.77555756156289e-17 	1.04756789398453 	0.00700863397029076 	0
7 	2.71953251516198 	-2.77555756156289e-17 	1.04526303927562 	0.0068136314811719 	0
7 	2.73458559382185 	-2.42861286636753e-17 	1.04254671029195 	0.00662330317384044 	0
7 	2.74910672106653 	-2.08166817117217e-17 	1.03939594834652 	0.00643742377271283 	0
7 	2.76311469519732 	-2.08166817117217e-17 	1.0357866325095 	0.00625576133412318 	0
7 	2.776627650214 	-2.42861286636753e-17 	1.03169397536192 	0.00607807226938821 	0
7 	2.78966307929018 	-3.12250225675825e-17 	1.0270930930328 	0.00590409554662058 	0
7 	2.80223785741904 	-3.46944695195361e-17 	1.02195962120727 	0.00573354643575526 	0
7 	2.81436826325886 	-3.81639164714898e-17 	1.01627033564314 	0.00556611031762161 	0
7 	2.82607000020647 	-3.81639164714898e-17 	1.01000372517348 	0.00540143720311586 	0
7 	2.83735821672613 	-3.12250225675825e-17 	1.00314045939338 	0.00523913765811862 	0
7 	2.8482475259599 	-2.77555756156289e-17 	0.995663693527347 	0.00507878078101978 	0
7 	2.85875202464506 	-2.77555756156289e-17 	0.987559159204958 	0.0049198949532124 	0
7 	2.86888531136304 	-2.77555756156289e-17 	0.978815000305782 	0.00476197239570785 	0
7 	2.87866050414343 	-2.77555756156289e-17 	0.969421324726043 	0.00460447496251962 	0
7 	2.88809025744591 	-3.29597460435593e-17 	0.959369452360618 	0.00444682667418748 	0
7 	2.89718677854204 	-3.81639164714898e-17 	0.948650843337995 	0.00428843435289943 	0
7 	2.90596184331818 	-4.16333634234434e-17 	0.937251546519481 	0.004129019811337 	0
7 	2.91442681151997 	-4.5102810375397e-17 	0.925112625518054 	0.00396736694837157 	0
7 	2.922592641458 	-4.5102810375397e-17 	0.912140073155116 	0.00380185260824077 	0
7 	2.93046990419394 	-4.5102810375397e-17 	0.898295816983515 	0.00363075519649746 	0
7 	2.93806879722526 	-4.16333634234434e-17 	0.883616437089182 	0.00345304955333496 	0
7 	2.94539915768638 	-3.46944695195361e-17 	0.868162779994304 	0.00326769962617203 	0
7 	2.95247047508334 	-3.12250225675825e-17 	0.851976599226205 	0.0030736720502447 	0
7 	2.9592919035784 	-3.12250225675825e-17 	0.835037832510445 	0.00287065394021972 	0
7 	2.96587227384055 	-3.12250225675825e-17 	0.817211603255777 	0.00265999352086189 	0
7 	2.97222010447726 	-3.46944695195361e-17 	0.798272715504108 	0.00244291125260292 	0
7 	2.97834361306218 	-3.46944695195361e-17 	0.777956816935242 	0.00222141365608954 	0
7 	2.98425072677325 	-3.12250225675825e-17 	0.755918553783322 	0.00199590721462196 	0
7 	2.98994909265477 	-3.12250225675825e-17 	0.731665396466033 	0.00176702066575394 	0
7 	2.99544608751689 	-3.12250225675825e-17 	0.704474691601684 	0.0015357439302265 	0
7 	3.00074882748522 	-2.94902990916057e-17 	0.673253035599501 	0.00130342546757906 	0
7 	3.00586417721304 	-3.12250225675825e-17 	0.636263180800292 	0.00107197475172092 	0
7 	3.01079875876789 	-3.46944695195361e-17 	0.590598810493236 	0.000844066055566673 	0
7 	3.01555896020418 	-3.46944695195361e-17 	0.53151797280034 	0.000624468040156874 	0
7 	3.02015094383281 	-3.46944695195361e-17 	0.451632098735646 	0.000418365559836739 	0
7 	3.02458065419861 	-3.46944695195361e-17 	0.343202360941746 	0.00023289817202483 	0
7 	3.02885382577582 	-3.12250225675825e-17 	0.210826359600429 	9.00266922442827e-05 	0
7 	3.03297599039165 	-3.46944695195361e-17 	0.0708337154609684 	1.16867589039137e-05 	0
