2 	0.0118766634903468 	4.16333634234434e-17 	1.0107506295224 	0.000143337774233659 	134.801347056874
2 	0.0201339998195326 	4.33680868994202e-17 	1.01075773290121 	0.000641788137023608 	35.3763879581369
2 	0.0286938265600376 	5.20417042793042e-17 	1.01076139599128 	0.00152423027027879 	16.3239713962809
2 	0.0375672248214896 	5.55111512312578e-17 	1.01076578965162 	0.00247096661393453 	9.97936142501761
2 	0.0467656816470147 	5.55111512312578e-17 	1.01076991293651 	0.00334947458175935 	7.07190258936007
2 	0.0563011048837711 	6.07153216591882e-17 	1.01076908746307 	0.00415330510916667 	5.49594896868343
2 	0.0661858385982333 	6.59194920871187e-17 	1.01076055919406 	0.00489492381604934 	4.53310256123654
2 	0.0764326790561829 	6.07153216591882e-17 	1.01074346504312 	0.00558614600424322 	3.88942977279548
2 	0.0870548912880936 	5.3776427755281e-17 	1.01071759096506 	0.00623643924802448 	3.429788366407
2 	0.0980662262613554 	5.55111512312578e-17 	1.01068291881251 	0.00685309948420385 	3.08526614821258
2 	0.109480938681567 	5.3776427755281e-17 	1.01063953326095 	0.00744170971562338 	2.81748900812419
2 	0.121313805445942 	4.5102810375397e-17 	1.01058758435053 	0.00800656798829105 	2.60350835659461
2 	0.133580144772717 	4.77048955893622e-17 	1.01052726722836 	0.00855101789252153 	2.42879168477148
2 	0.146295836031327 	5.3776427755281e-17 	1.01045881561227 	0.00907768965367337 	2.28369984867667
2 	0.159477340299017 	5.3776427755281e-17 	1.01038250162911 	0.00958867394758513 	2.16159279820884
2 	0.173141721670501 	4.9439619065339e-17 	1.01029863797612 	0.0100856481947806 	2.05775175245666
2 	0.187306669348262 	4.0766001685455e-17 	1.01020758111998 	0.0105699701011557 	1.96873621238156
2 	0.20199052054208 	3.72965547335014e-17 	1.01010973508024 	0.0110427489944723 	1.89198487162378
2 	0.217212284207436 	4.16333634234434e-17 	1.01000555561848 	0.0115049025283859 	1.82555963543602
2 	0.232991665653523 	5.160802341031e-17 	1.00989555484309 	0.0119572043963168 	1.76797707018112
2 	0.249349092052728 	5.39932681897781e-17 	1.00978030639646 	0.0124003275555404 	1.71809534173271
2 	0.266305738884589 	5.908901840046e-17 	1.00966045156263 	0.0128348869150332 	1.67503777475727
2 	0.283883557348484 	6.19079440489223e-17 	1.00953728171491 	0.0132614574999047 	1.63816614068041
2 	0.302105302780516 	5.89805981832114e-17 	1.00941327930971 	0.0136806933000176 	1.60706354914646
2 	0.320994564111402 	5.55111512312578e-17 	1.00928728612475 	0.0140935206009194 	1.58132360843471
2 	0.340575794403482 	5.55111512312578e-17 	1.00916038933127 	0.014500927916421 	1.56079656225582
2 	0.360874342506392 	5.55111512312578e-17 	1.00903382189634 	0.014904224347957 	1.54550112762203
2 	0.38191648587238 	4.16333634234434e-17 	1.00890901410818 	0.0153052000955819 	1.53564935396384
2 	0.403729464573739 	3.81639164714898e-17 	1.00878767548432 	0.0157063482646365 	1.53169142857905
2 	0.426341516566396 	3.81639164714898e-17 	1.00867192621054 	0.016111175525781 	1.53438827312321
2 	0.449781914245319 	3.81639164714898e-17 	1.00856450876935 	0.0165246432561368 	1.54492494778214
2 	0.474081002339048 	3.98986399474666e-17 	1.00846912232228 	0.0169538038803026 	1.56508625001503
2 	0.499270237192413 	3.98986399474666e-17 	1.00839093732319 	0.0174087361378424 	1.59752976951501
2 	0.525382227488298 	4.16333634234434e-17 	1.00833746243574 	0.017903950497171 	1.6462147231998
2 	0.552450776461161 	3.29597460435593e-17 	1.00832018450332 	0.0184605542764949 	1.71708087530395
2 	0.580510925656956 	1.73472347597681e-17 	1.00835594081115 	0.0191091487620586 	1.81873488904125
2 	0.609599000296116 	8.67361737988404e-18 	1.00846229079001 	0.0198898998340369 	1.95968659254951
2 	0.639752656298307 	1.56125112837913e-17 	1.00864949501045 	0.0208438228595072 	2.13773379970156
2 	0.671010929029842 	1.82145964977565e-17 	1.00892135377574 	0.0220196139918296 	2.34406823708841
2 	0.703414283836854 	1.17093834628434e-17 	1.00926407017807 	0.0235042230584923 	2.58232526307739
2 	0.737004668429646 	7.37257477290143e-18 	1.00968110351858 	0.0254384190946671 	2.86422124127435
2 	0.761419519668137 	1.73472347597681e-18 	1.01001624987937 	0.0271081280295744 	3.08711556084726
2 	0.779162313841247 	-3.46944695195361e-18 	1.01027148694048 	0.0284813611016373 	3.25557264625002
2 	0.807992742715647 	-6.93889390390723e-18 	1.01067821415286 	0.0308379055483162 	3.51926376708815
2 	0.845475280399478 	-1.38777878078145e-17 	1.01117726502556 	0.033947855346664 	3.825304003952
2 	0.884326557652536 	-1.38777878078145e-17 	1.01165729223666 	0.0368701811025645 	4.07274939368174
2 	0.924596372923088 	-6.93889390390723e-18 	1.01222026074894 	0.0392470517066702 	4.24403210178179
2 	0.966336321272196 	-8.67361737988404e-18 	1.01306337086785 	0.0407781378858994 	4.3256228380687
2 	1.00959985787075 	-1.04083408558608e-17 	1.01420424268169 	0.0412319968232033 	4.29417476483016
2 	1.05444236361788 	-8.67361737988404e-18 	1.01547227991752 	0.0405319025785478 	4.12434286575775
2 	1.10092121293912 	-6.93889390390723e-18 	1.01675431810078 	0.03892933875741 	3.8125120873282
2 	1.14909584382294 	-3.46944695195361e-18 	1.01798463660688 	0.0369792776958497 	3.39514579257496
2 	1.19902783015393 	4.44522890719057e-18 	1.0191273198647 	0.035253206225642 	2.94347543194548
2 	1.25078095640108 	1.13841228110978e-17 	1.02017831637841 	0.0340400996908583 	2.52784893764828
2 	1.30442129471847 	1.73472347597681e-17 	1.02115416249363 	0.0333065824133814 	2.18771470835703
2 	1.36001728451516 	1.38777878078145e-17 	1.02210826602234 	0.0328193857087716 	1.92217037104688
2 	1.41763981454947 	1.04083408558608e-17 	1.02306761680024 	0.0323705462131968 	1.71738211928881
2 	1.47736230760124 	1.38777878078145e-17 	1.02405368160367 	0.0318057109373381 	1.55723393665722
2 	1.53926080777324 	1.30104260698261e-17 	1.02507790827975 	0.0310301320851516 	1.42744544025285
2 	1.60341407047001 	1.04083408558608e-17 	1.02614528690993 	0.0299956433850568 	1.31561140768397
2 	1.66893489902563 	7.80625564189563e-18 	1.02724072072035 	0.0287152146221389 	1.21547805166465
2 	1.70277529794134 	6.93889390390723e-18 	1.02780684027473 	0.0280002964043832 	1.16677644826822
2 	1.73884798288128 	6.93889390390723e-18 	1.02840676626183 	0.0271664895917273 	1.12003589336504
2 	1.81031024575141 	0 	1.0295881364927 	0.0254562203130837 	1.03259075924246
2 	1.88432958821742 	-6.93889390390723e-18 	1.03079068599638 	0.023614256326391 	0.951005249336413
2 	1.9609947218388 	0 	1.03195962033786 	0.0217497729435681 	0.8772086632376
2 	2.02024009608345 	0 	1.03288790368317 	0.0203052764429803 	0.82626486581535
2 	2.06000503604194 	6.93889390390723e-18 	1.03348525284746 	0.0193335610582606 	0.794724627660977
2 	2.09836474743796 	1.38777878078145e-17 	1.03403614054938 	0.0184556431826071 	0.76841948549509
2 	2.13536888877257 	6.93889390390723e-18 	1.03455465792655 	0.0176355709954193 	0.745855524445977
2 	2.17106536369585 	0 	1.03503975566221 	0.0168702682763342 	0.726732211087569
2 	2.20550038302044 	6.93889390390723e-18 	1.03549336152537 	0.0161561762890313 	0.710780268914282
2 	2.23871852454378 	1.38777878078145e-17 	1.03591712637974 	0.0154895668449878 	0.697767602409371
2 	2.27076279075613 	6.93889390390723e-18 	1.03631259324499 	0.0148667488183375 	0.687500917956453
2 	2.30167466450941 	6.93889390390723e-18 	1.03668130087727 	0.014284198641373 	0.67982514353922
2 	2.33149416271872 	6.93889390390723e-18 	1.03702476014631 	0.0137386368580968 	0.674621902192369
2 	2.36025988816627 	0 	1.03734443816492 	0.0132270673916869 	0.671807750635018
2 	2.38800907947441 	6.93889390390723e-18 	1.03764175114591 	0.0127467917833313 	0.671332560179905
2 	2.41477765931296 	1.38777878078145e-17 	1.0379180597746 	0.0122954072660813 	0.673178230322809
2 	2.44060028090272 	1.38777878078145e-17 	1.03817466640003 	0.01187079497927 	0.67735782726791
2 	2.46551037287586 	1.38777878078145e-17 	1.03841281374696 	0.0114711027101071 	0.683915188800639
2 	2.48954018255081 	2.08166817117217e-17 	1.0386336847254 	0.0110947251201398 	0.69292500962942
2 	2.51272081767801 	2.08166817117217e-17 	1.03883840299581 	0.0107402833606135 	0.704493404911513
2 	2.53508228671038 	1.38777878078145e-17 	1.03902803403952 	0.0104066052109904 	0.718758937523932
2 	2.55665353765073 	1.38777878078145e-17 	1.03920358655074 	0.0100927063162395 	0.735894083170438
2 	2.57746249552636 	1.38777878078145e-17 	1.03936601401805 	0.00979777269396424 	0.756107094606746
2 	2.59753609853934 	2.08166817117217e-17 	1.0395162164037 	0.00952114438879064 	0.779644211027263
2 	2.6169003329393 	2.77555756156289e-17 	1.03965504186068 	0.00926229993789086 	0.806792140757017
2 	2.63558026666389 	2.77555756156289e-17 	1.03978328845134 	0.00902084115864263 	0.837880725742346
2 	2.65360008179049 	2.77555756156289e-17 	1.03990170585057 	0.00879647766853464 	0.873285677515821
2 	2.67098310584102 	3.46944695195361e-17 	1.04001099703022 	0.00858901049999823 	0.913431261287203
2 	2.68775184198056 	4.16333634234434e-17 	1.04011181993189 	0.00839831418963136 	0.958792805677331
2 	2.70392799814879 	4.16333634234434e-17 	1.04020478914214 	0.00822431682037352 	1.00989894215422
2 	2.71953251516198 	4.16333634234434e-17 	1.04029047758774 	0.00806697769809912 	1.06733354589408
2 	2.73458559382185 	3.46944695195361e-17 	1.04036941826892 	0.00792626266896548 	1.13173747650975
2 	2.74910672106653 	2.77555756156289e-17 	1.04044210604597 	0.00780211753555365 	1.20381042043026
2 	2.76311469519732 	2.77555756156289e-17 	1.04050899948831 	0.0076944405879452 	1.28431342905419
2 	2.776627650214 	2.08166817117217e-17 	1.04057052278605 	0.00760305587352862 	1.37407312901232
2 	2.78966307929018 	1.38777878078145e-17 	1.04062706771292 	0.00752768938830506 	1.47398903617675
2 	2.80223785741904 	1.38777878078145e-17 	1.04067899561661 	0.00746795075053687 	1.58504589597934
2 	2.81436826325886 	1.38777878078145e-17 	1.04072663940037 	0.00742332297255592 	1.70833344474183
2 	2.82607000020647 	1.38777878078145e-17 	1.04077030544993 	0.00739316256543811 	1.84507638186713
2 	2.83735821672613 	1.38777878078145e-17 	1.04081027545422 	0.00737671135467075 	1.99667762095669
2 	2.8482475259599 	1.38777878078145e-17 	1.04084680806875 	0.00737312011931136 	2.16477805341173
2 	2.85875202464506 	1.38777878078145e-17 	1.04088014037794 	0.00738148266675874 	2.35133618014318
2 	2.86888531136304 	1.38777878078145e-17 	1.04091048912752 	0.00740087746536643 	2.55873118743115
2 	2.87866050414343 	1.38777878078145e-17 	1.04093805171914 	0.00743041272592347 	2.78989356693598
2 	2.88809025744591 	1.04083408558608e-17 	1.04096300698637 	0.00746927002631507 	3.04846845742272
2 	2.89718677854204 	6.93889390390723e-18 	1.04098551580094 	0.00751674126183144 	3.33901880098201
2 	2.90596184331818 	1.04083408558608e-17 	1.0410057215882 	0.00757225379226514 	3.66727849919
2 	2.91442681151997 	1.73472347597681e-17 	1.04102375085401 	0.00763537896634135 	4.04047050536581
2 	2.922592641458 	1.73472347597681e-17 	1.04103971387171 	0.00770581953606323 	4.46771200994861
2 	2.93046990419394 	1.73472347597681e-17 	1.04105370584281 	0.00778337171344595 	4.96054007736693
2 	2.93806879722526 	2.08166817117217e-17 	1.04106580873537 	0.00786785787094117 	5.53360916102461
2 	2.94539915768638 	2.08166817117217e-17 	1.04107609134974 	0.0079590266863842 	6.205642377771
2 	2.95247047508334 	2.42861286636753e-17 	1.04108460266811 	0.00805642027104217 	7.00077201490518
2 	2.9592919035784 	2.42861286636753e-17 	1.04109140434889 	0.00815920473216925 	7.95054315902396
2 	2.96587227384055 	2.08166817117217e-17 	1.04109672646466 	0.00826585437333483 	9.09739527461938
2 	2.97222010447726 	1.73472347597681e-17 	1.04110089518833 	0.00837276015015631 	10.5029184123111
2 	2.97834361306218 	1.38777878078145e-17 	1.04110375898861 	0.00847372306070918 	12.2510171066462
2 	2.98425072677325 	1.38777878078145e-17 	1.04110492905671 	0.0085561028227526 	14.4472819412676
2 	2.98994909265477 	1.04083408558608e-17 	1.04110435933774 	0.00859925614000032 	17.2349576846959
2 	2.99544608751689 	3.46944695195361e-18 	1.04110221870602 	0.00857177609613492 	20.8282503728573
2 	3.00074882748522 	6.93889390390723e-18 	1.04109879088887 	0.00842617481050955 	25.5677612369877
2 	3.00586417721304 	1.04083408558608e-17 	1.04109444737892 	0.00808889342037358 	32.0361070778779
2 	3.01079875876789 	6.93889390390723e-18 	1.04108963685396 	0.00744291225409774 	41.3198100014332
2 	3.01555896020418 	1.04083408558608e-17 	1.04108489756679 	0.00630680353740614 	55.6984981495214
2 	3.02015094383281 	1.04083408558608e-17 	1.04108089967096 	0.00446745512644759 	81.2346443513708
2 	3.02458065419861 	1.04083408558608e-17 	1.04107818634427 	0.00202105970753907 	143.371386738302
2 	3.02885382577582 	2.08166817117217e-17 	1.04107655627076 	0.000414737371019638 	437.005384744021
2 	3.03297599039165 	2.60208521396521e-17 	1.04107555508323 	3.2270802445265e-05 	1716.80885468505
