2 	0.0118766634903468 	4.16333634234434e-17 	-0.0630031856121506 	0.00146626727549333 	-2.64500120688067e-23
2 	0.0201339998195326 	4.33680868994202e-17 	-0.108176914916426 	0.00352987325881267 	-5.6804810097402e-21
2 	0.0286938265600376 	5.20417042793042e-17 	-0.141947752495291 	0.00582292103597209 	-1.45968739701327e-20
2 	0.0375672248214896 	5.55111512312578e-17 	-0.161099084953231 	0.00787315927104077 	-9.51745460482298e-21
2 	0.0467656816470147 	5.55111512312578e-17 	-0.170763530150711 	0.00964883095212159 	2.31468945945695e-20
2 	0.0563011048837711 	6.07153216591882e-17 	-0.175481797159376 	0.0112365124503004 	-4.00289213983549e-20
2 	0.0661858385982333 	6.59194920871187e-17 	-0.177579827897284 	0.0126955017111536 	3.51324820122083e-17
2 	0.0764326790561829 	6.07153216591882e-17 	-0.17815061750025 	0.0140616038244457 	3.82092776182293e-17
2 	0.0870548912880936 	5.3776427755281e-17 	-0.177736316445579 	0.0153576836889931 	-2.29799643776156e-17
2 	0.0980662262613554 	5.55111512312578e-17 	-0.176627633988787 	0.0165984728298551 	-2.59335808507954e-17
2 	0.109480938681567 	5.3776427755281e-17 	-0.174991100257314 	0.0177935043284798 	-1.38027000154467e-21
2 	0.121313805445942 	4.5102810375397e-17 	-0.172926736025259 	0.0189489659083866 	7.81829100830987e-23
2 	0.133580144772717 	4.77048955893622e-17 	-0.170496301393537 	0.0200688018187082 	1.5150191250463e-20
2 	0.146295836031327 	5.3776427755281e-17 	-0.167738139601938 	0.0211553680697397 	6.13657080896112e-23
2 	0.159477340299017 	5.3776427755281e-17 	-0.16467545081692 	0.0222098317373344 	-1.08248496795777e-21
2 	0.173141721670501 	4.9439619065339e-17 	-0.161321131587821 	0.0232324162406764 	-4.30766111872513e-20
2 	0.187306669348262 	4.0766001685455e-17 	-0.157680715653146 	0.024222548444388 	-1.55651435183874e-21
2 	0.20199052054208 	3.72965547335014e-17 	-0.153754211648391 	0.0251789396333861 	5.32903147824471e-22
2 	0.217212284207436 	4.16333634234434e-17 	-0.149537269678199 	0.0260996189054668 	9.06603105331655e-22
2 	0.232991665653523 	5.160802341031e-17 	-0.14502192011752 	0.0269819294470115 	2.62489994244622e-20
2 	0.249349092052728 	5.39932681897781e-17 	-0.14019702492539 	0.0278224930759988 	-3.85330464442285e-22
2 	0.266305738884589 	5.908901840046e-17 	-0.135048522093921 	0.0286171449735639 	-2.65139365524522e-20
2 	0.283883557348484 	6.19079440489223e-17 	-0.129557030143669 	0.0293635236332647 	2.41674005350686e-22
2 	0.302105302780516 	5.89805981832114e-17 	-0.123695817353415 	0.0300619169164608 	1.39963905933421e-21
2 	0.320994564111402 	5.55111512312578e-17 	-0.117450995782744 	0.0306942536496391 	2.12061243559774e-20
2 	0.340575794403482 	5.55111512312578e-17 	-0.110795591578793 	0.0312518495281511 	-3.37681800641863e-21
2 	0.360874342506392 	5.55111512312578e-17 	-0.103698425580931 	0.0317243448557675 	-4.94131323550959e-17
2 	0.38191648587238 	4.16333634234434e-17 	-0.0961231229064194 	0.0320993690022486 	-1.01551668082327e-15
2 	0.403729464573739 	3.81639164714898e-17 	-0.0880266297951466 	0.0323621255528523 	9.39557565249396e-16
2 	0.426341516566396 	3.81639164714898e-17 	-0.0793569883440239 	0.0324948862101613 	8.99585217484667e-17
2 	0.449781914245319 	3.81639164714898e-17 	-0.0700499739408011 	0.0324763895864925 	4.82365048546128e-21
2 	0.474081002339048 	3.98986399474666e-17 	-0.0600239675720799 	0.0322811603272384 	-3.42069231871847e-20
2 	0.499270237192413 	3.98986399474666e-17 	-0.0491720609775897 	0.031878798579094 	-9.86023166574751e-21
2 	0.525382227488298 	4.16333634234434e-17 	-0.0373497917439624 	0.0312334471453406 	1.39723116882458e-20
2 	0.552450776461161 	3.29597460435593e-17 	-0.0243560026930831 	0.0303043756278089 	-8.47665618969714e-20
2 	0.580510925656956 	1.73472347597681e-17 	-0.00990432705347398 	0.0290489697872824 	1.10306437354619e-16
2 	0.609599000296116 	8.67361737988404e-18 	0.00640558074684407 	0.0274254788905687 	6.16421592247262e-16
2 	0.639752656298307 	1.56125112837913e-17 	0.0250764613107941 	0.025398542510561 	-5.79488069855643e-16
2 	0.671010929029842 	1.82145964977565e-17 	0.0467075745582995 	0.0229493322653638 	-1.64894704735677e-16
2 	0.703414283836854 	1.17093834628434e-17 	0.0723736570183983 	0.0200090775027807 	5.36597221310881e-20
2 	0.737004668429646 	7.37257477290143e-18 	0.104073442212001 	0.0164629531459407 	-4.18417431046188e-21
2 	0.761419519668137 	1.73472347597681e-18 	0.130823599723681 	0.0135766266377953 	-3.45113288594291e-20
2 	0.779162313841247 	-3.46944695195361e-18 	0.152720366835046 	0.0113062319386538 	-1.14403380846404e-20
2 	0.807992742715647 	-6.93889390390723e-18 	0.191356756235046 	0.007495615508905 	-2.3943963691656e-20
2 	0.845475280399478 	-1.38777878078145e-17 	0.246046123390682 	0.00246824512708562 	-6.19818115064015e-20
2 	0.884326557652536 	-1.38777878078145e-17 	0.305937201688372 	-0.00257037241521701 	2.41515777376239e-19
2 	0.924596372923088 	-6.93889390390723e-18 	0.369875022174498 	-0.00730670770901673 	4.32620682604687e-20
2 	0.966336321272196 	-8.67361737988404e-18 	0.437612242861191 	-0.011339436186065 	3.86238483014387e-20
2 	1.00959985787075 	-1.04083408558608e-17 	0.50847416218037 	-0.0142567997453688 	1.43323915886527e-19
2 	1.05444236361788 	-8.67361737988404e-18 	0.580016035396081 	-0.0157728962357493 	9.6621342498216e-20
2 	1.10092121293912 	-6.93889390390723e-18 	0.648475483158442 	-0.0160228217281821 	1.56635873232041e-19
2 	1.14909584382294 	-3.46944695195361e-18 	0.709994918232399 	-0.0154434953081626 	8.43696949086677e-20
2 	1.19902783015393 	4.44522890719057e-18 	0.762172541053844 	-0.0145778977458772 	8.95873241274534e-20
2 	1.25078095640108 	1.13841228110978e-17 	0.804902826927402 	-0.0138445662805833 	8.3692206812942e-20
2 	1.30442129471847 	1.73472347597681e-17 	0.83981629974902 	-0.0134388719811009 	2.09636445561015e-19
2 	1.36001728451516 	1.38777878078145e-17 	0.869580564934174 	-0.0133204731479112 	-3.0478808050281e-20
2 	1.41763981454947 	1.04083408558608e-17 	0.896104182942099 	-0.0133897949246344 	2.21596532787256e-19
2 	1.47736230760124 	1.38777878078145e-17 	0.92070482987335 	-0.0135326713772908 	-3.83700779894369e-16
2 	1.53926080777324 	1.30104260698261e-17 	0.944172035498529 	-0.0136505575403446 	-2.63124005808207e-15
2 	1.60341407047001 	1.04083408558608e-17 	0.966884916079711 	-0.0136721180394608 	2.14692181189866e-15
2 	1.66893489902563 	7.80625564189563e-18 	0.988626865587043 	-0.0135579317852273 	8.03109314099238e-16
2 	1.70277529794134 	6.93889390390723e-18 	0.999488134098629 	-0.0134621124079848 	2.22104604378458e-17
2 	1.73884798288128 	6.93889390390723e-18 	1.01030001618542 	-0.0132886403663566 	1.89214409242592e-20
2 	1.81031024575141 	0 	1.03083976796129 	-0.0128709409925262 	1.4205965783824e-19
2 	1.88432958821742 	-6.93889390390723e-18 	1.05033052593291 	-0.0123094030352145 	3.26817353544427e-20
2 	1.9609947218388 	0 	1.06814506590437 	-0.0116544976274349 	2.12462011984867e-19
2 	2.02024009608345 	0 	1.08082653709237 	-0.0110851659759189 	-7.01662914287673e-22
2 	2.06000503604194 	6.93889390390723e-18 	1.08894705775636 	-0.0106656337086532 	0
2 	2.09836474743796 	1.38777878078145e-17 	1.09600035056227 	-0.0102788123595828 	0
2 	2.13536888877257 	6.93889390390723e-18 	1.10234987744706 	-0.00990420784911689 	0
2 	2.17106536369585 	0 	1.10806130606136 	-0.0095432296410612 	0
2 	2.20550038302044 	6.93889390390723e-18 	1.11319351160791 	-0.00919720694694478 	0
2 	2.23871852454378 	1.38777878078145e-17 	1.11779886599055 	-0.00886649250889021 	0
2 	2.27076279075613 	6.93889390390723e-18 	1.12192365188986 	-0.00855098518026877 	0
2 	2.30167466450941 	6.93889390390723e-18 	1.12560853010173 	-0.00825030052248037 	0
2 	2.33149416271872 	6.93889390390723e-18 	1.12888901429619 	-0.00796385797293645 	0
2 	2.36025988816627 	0 	1.13179592811325 	-0.00769095564509522 	0
2 	2.38800907947441 	6.93889390390723e-18 	1.13435583105928 	-0.00743082768205411 	0
2 	2.41477765931296 	1.38777878078145e-17 	1.13659140597942 	-0.00718268569736744 	0
2 	2.44060028090272 	1.38777878078145e-17 	1.13852180474871 	-0.00694574804889314 	0
2 	2.46551037287586 	1.38777878078145e-17 	1.1401629514017 	-0.00671925980406233 	0
2 	2.48954018255081 	2.08166817117217e-17 	1.14152780373165 	-0.00650250563571377 	0
2 	2.51272081767801 	2.08166817117217e-17 	1.14262657571449 	-0.006294817467951 	0
2 	2.53508228671038 	1.38777878078145e-17 	1.14346692411882 	-0.00609557832268214 	0
2 	2.55665353765073 	1.38777878078145e-17 	1.1440541034751 	-0.00590422349786069 	0
2 	2.57746249552636 	1.38777878078145e-17 	1.14439109428892 	-0.00572023994089094 	0
2 	2.59753609853934 	2.08166817117217e-17 	1.14447871006456 	-0.00554316445990366 	0
2 	2.6169003329393 	2.77555756156289e-17 	1.14431568939188 	-0.00537258123452027 	0
2 	2.63558026666389 	2.77555756156289e-17 	1.14389878003768 	-0.00520811893899653 	0
2 	2.65360008179049 	2.77555756156289e-17 	1.14322282261292 	-0.00504944766731004 	0
2 	2.67098310584102 	3.46944695195361e-17 	1.1422808418352 	-0.00489627574593323 	0
2 	2.68775184198056 	4.16333634234434e-17 	1.14106415346995 	-0.00474834643138785 	0
2 	2.70392799814879 	4.16333634234434e-17 	1.13956249443521 	-0.00460543441400884 	0
2 	2.71953251516198 	4.16333634234434e-17 	1.13776418195773 	-0.00446734198693014 	0
2 	2.73458559382185 	3.46944695195361e-17 	1.13565630472279 	-0.00433389469319689 	0
2 	2.74910672106653 	2.77555756156289e-17 	1.13322494439376 	-0.00420493623963819 	0
2 	2.76311469519732 	2.77555756156289e-17 	1.13045541960624 	-0.0040803224709805 	0
2 	2.776627650214 	2.08166817117217e-17 	1.12733253681165 	-0.00395991423880142 	0
2 	2.78966307929018 	1.38777878078145e-17 	1.12384082383065 	-0.00384356908180733 	0
2 	2.80223785741904 	1.38777878078145e-17 	1.11996471379536 	-0.00373113175542557 	0
2 	2.81436826325886 	1.38777878078145e-17 	1.11568864073862 	-0.00362242380056022 	0
2 	2.82607000020647 	1.38777878078145e-17 	1.11099700485181 	-0.00351723250576821 	0
2 	2.83735821672613 	1.38777878078145e-17 	1.10587396638422 	-0.00341529976995886 	0
2 	2.8482475259599 	1.38777878078145e-17 	1.10030303245527 	-0.00331631148900619 	0
2 	2.85875202464506 	1.38777878078145e-17 	1.09426640978447 	-0.00321988815063491 	0
2 	2.86888531136304 	1.38777878078145e-17 	1.08774410659832 	-0.00312557732127066 	0
2 	2.87866050414343 	1.38777878078145e-17 	1.08071277623374 	-0.00303284865587753 	0
2 	2.88809025744591 	1.04083408558608e-17 	1.07314430068849 	-0.00294109198070692 	0
2 	2.89718677854204 	6.93889390390723e-18 	1.06500411256642 	-0.0028496189214614 	0
2 	2.90596184331818 	1.04083408558608e-17 	1.05624924733256 	-0.00275766851099307 	0
2 	2.91442681151997 	1.73472347597681e-17 	1.04682610403456 	-0.00266441725336393 	0
2 	2.922592641458 	1.73472347597681e-17 	1.03666787134104 	-0.00256899426303228 	0
2 	2.93046990419394 	1.73472347597681e-17 	1.0256915459052 	-0.00247050209719401 	0
2 	2.93806879722526 	2.08166817117217e-17 	1.0137944290768 	-0.00236804349837026 	0
2 	2.94539915768638 	2.08166817117217e-17 	1.00084993060603 	-0.00226075786110628 	0
2 	2.95247047508334 	2.42861286636753e-17 	0.986702421838777 	-0.0021478995964308 	0
2 	2.9592919035784 	2.42861286636753e-17 	0.971159851387274 	-0.00202890698021403 	0
2 	2.96587227384055 	2.08166817117217e-17 	0.953974850208354 	-0.00190303522274954 	0
2 	2.97222010447726 	1.73472347597681e-17 	0.934752318192108 	-0.00176828472066331 	0
2 	2.97834361306218 	1.38777878078145e-17 	0.91295621756145 	-0.00162236696150375 	0
2 	2.98425072677325 	1.38777878078145e-17 	0.888005188736641 	-0.00146427901241296 	0
2 	2.98994909265477 	1.04083408558608e-17 	0.859210889036335 	-0.00129548324727024 	0
2 	2.99544608751689 	3.46944695195361e-18 	0.825687034962579 	-0.00111894756816129 	0
2 	3.00074882748522 	6.93889390390723e-18 	0.786208422912778 	-0.000938608879102586 	0
2 	3.00586417721304 	1.04083408558608e-17 	0.738978125312069 	-0.000759094085457341 	0
2 	3.01079875876789 	6.93889390390723e-18 	0.681237623015673 	-0.000585595609580914 	-4.35512426616255e-15
2 	3.01555896020418 	1.04083408558608e-17 	0.608619480340512 	-0.000423671347731264 	-3.15357674247559e-15
2 	3.02015094383281 	1.04083408558608e-17 	0.514337697780445 	-0.000278158618979097 	6.75805510487412e-15
2 	3.02458065419861 	1.04083408558608e-17 	0.389876529041591 	-0.000152479690975151 	5.556507581194e-15
2 	3.02885382577582 	2.08166817117217e-17 	0.238007600191303 	-5.75722643984201e-05 	0
2 	3.03297599039165 	2.60208521396521e-17 	0.0789129265271408 	-7.15349227422286e-06 	0
