2 	0.0118766634903468 	4.16333634234434e-17 	-0.149838094744392 	0.00194759858736874 	-1.5401969433056e-23
2 	0.0201339998195326 	4.33680868994202e-17 	-0.194632008473768 	0.00339251291888579 	-2.18006001853549e-21
2 	0.0286938265600376 	5.20417042793042e-17 	-0.209655228276726 	0.0045078516403672 	-5.60357524195435e-21
2 	0.0375672248214896 	5.55111512312578e-17 	-0.213851455695727 	0.00540058790747437 	-3.65811262167502e-21
2 	0.0467656816470147 	5.55111512312578e-17 	-0.21412077964815 	0.00615931313733281 	8.84406468866695e-21
2 	0.0563011048837711 	6.07153216591882e-17 	-0.212578641611933 	0.00681581892090644 	-1.61743679582197e-20
2 	0.0661858385982333 	6.59194920871187e-17 	-0.210008498319306 	0.00738747902218878 	1.60841010896678e-17
2 	0.0764326790561829 	6.07153216591882e-17 	-0.206760287257884 	0.00788515808009528 	1.71147923855044e-17
2 	0.0870548912880936 	5.3776427755281e-17 	-0.203010133339867 	0.00831545690764312 	-1.12347806143992e-17
2 	0.0980662262613554 	5.55111512312578e-17 	-0.198852844150021 	0.00868226765414599 	-1.22097876822123e-17
2 	0.109480938681567 	5.3776427755281e-17 	-0.194340596111152 	0.00898772860301692 	-6.24797681859049e-22
2 	0.121313805445942 	4.5102810375397e-17 	-0.189501103789982 	0.00923275388894361 	2.89493834387367e-23
2 	0.133580144772717 	4.77048955893622e-17 	-0.18434691177675 	0.00941733672220339 	7.44080388156331e-21
2 	0.146295836031327 	5.3776427755281e-17 	-0.178880453287551 	0.00954072898893504 	2.21526493160979e-23
2 	0.159477340299017 	5.3776427755281e-17 	-0.173096926327438 	0.00960154454092708 	-5.45999849398387e-22
2 	0.173141721670501 	4.9439619065339e-17 	-0.166985967950487 	0.00959781133355304 	-2.19531726147596e-20
2 	0.187306669348262 	4.0766001685455e-17 	-0.160532625822078 	0.0095269868566894 	-7.5975021578481e-22
2 	0.20199052054208 	3.72965547335014e-17 	-0.153717893899093 	0.00938594507346302 	2.47634055850881e-22
2 	0.217212284207436 	4.16333634234434e-17 	-0.146518959618425 	0.00917093937302713 	4.79364953585296e-22
2 	0.232991665653523 	5.160802341031e-17 	-0.138909244932922 	0.00887754374425391 	1.38621195638415e-20
2 	0.249349092052728 	5.39932681897781e-17 	-0.130858285847861 	0.00850057289163877 	-1.72589681605721e-22
2 	0.266305738884589 	5.908901840046e-17 	-0.122331471541502 	0.00803398111911613 	-1.42443844759409e-20
2 	0.283883557348484 	6.19079440489223e-17 	-0.113285212955792 	0.00747607870037684 	1.28848364610517e-22
2 	0.302105302780516 	5.89805981832114e-17 	-0.103662899576039 	0.00683171975448549 	7.43138993757102e-22
2 	0.320994564111402 	5.55111512312578e-17 	-0.0934307959686013 	0.00607026467670705 	1.17057114628581e-20
2 	0.340575794403482 	5.55111512312578e-17 	-0.0825315200185059 	0.00518077465502358 	-1.8160524046007e-21
2 	0.360874342506392 	5.55111512312578e-17 	-0.0708997936362352 	0.0041505846595808 	-2.76539653820223e-17
2 	0.38191648587238 	4.16333634234434e-17 	-0.0584609717085473 	0.00296508345318635 	-5.74231215691427e-16
2 	0.403729464573739 	3.81639164714898e-17 	-0.0451291852014133 	0.0016074972752049 	5.36147925357115e-16
2 	0.426341516566396 	3.81639164714898e-17 	-0.0308049955854594 	5.86989301543499e-05 	5.07466859232023e-17
2 	0.449781914245319 	3.81639164714898e-17 	-0.0153724454769814 	-0.00170290429036135 	2.65226370251758e-21
2 	0.474081002339048 	3.98986399474666e-17 	0.00130454064067623 	-0.00370126684285325 	-1.98241448605592e-20
2 	0.499270237192413 	3.98986399474666e-17 	0.0193865358954192 	-0.00596231059105575 	-5.57671434984096e-21
2 	0.525382227488298 	4.16333634234434e-17 	0.0390663108230442 	-0.0085136786374578 	7.91841101650405e-21
2 	0.552450776461161 	3.29597460435593e-17 	0.0605728365543842 	-0.0113834466651378 	-4.76949242466299e-20
2 	0.580510925656956 	1.73472347597681e-17 	0.0841774560699378 	-0.014597777467327 	5.8803528436736e-17
2 	0.609599000296116 	8.67361737988404e-18 	0.110198072159747 	-0.0181767926518592 	3.30183096900603e-16
2 	0.639752656298307 	1.56125112837913e-17 	0.138995939587418 	-0.0221281570589766 	-2.9939291958523e-16
2 	0.671010929029842 	1.82145964977565e-17 	0.170955497186365 	-0.0264383084129665 	-8.56478712225938e-17
2 	0.703414283836854 	1.17093834628434e-17 	0.206441794519627 	-0.0310624240856459 	2.63709502617184e-20
2 	0.737004668429646 	7.37257477290143e-18 	0.245748332378465 	-0.0359156104792751 	-8.25550152090444e-22
2 	0.761419519668137 	1.73472347597681e-18 	0.275745648656681 	-0.039410982105872 	-1.56669911220057e-20
2 	0.779162313841247 	-3.46944695195361e-18 	0.298370846434338 	-0.0418928949043162 	-4.88335283126558e-21
2 	0.807992742715647 	-6.93889390390723e-18 	0.336236313126698 	-0.0457541874406525 	-1.16039512359551e-20
2 	0.845475280399478 	-1.38777878078145e-17 	0.387309829802925 	-0.0503611252492674 	-2.64867869135137e-20
2 	0.884326557652536 	-1.38777878078145e-17 	0.44182182698257 	-0.0544374354947435 	1.29032008110476e-19
2 	0.924596372923088 	-6.93889390390723e-18 	0.498926433338361 	-0.0577199216356901 	2.221602562582e-20
2 	0.966336321272196 	-8.67361737988404e-18 	0.557263049544958 	-0.0599746258298367 	2.33158577954177e-20
2 	1.00959985787075 	-1.04083408558608e-17 	0.61493406640629 	-0.0610566913522247 	9.1089939416663e-20
2 	1.05444236361788 	-8.67361737988404e-18 	0.669684134486588 	-0.060973341183291 	6.25917914610596e-20
2 	1.10092121293912 	-6.93889390390723e-18 	0.719353534627231 	-0.0599116419129581 	1.03899576876226e-19
2 	1.14909584382294 	-3.46944695195361e-18 	0.762478930271376 	-0.0581900540921161 	5.7168618522106e-20
2 	1.19902783015393 	4.44522890719057e-18 	0.798684540688346 	-0.0561482722461323 	6.14093456554189e-20
2 	1.25078095640108 	1.13841228110978e-17 	0.828555946331107 	-0.0540471117923806 	5.82048284358529e-20
2 	1.30442129471847 	1.73472347597681e-17 	0.853172301962069 	-0.0520354993552376 	1.472561237431e-19
2 	1.36001728451516 	1.38777878078145e-17 	0.874066681257471 	-0.050150866467915 	-2.10733584004354e-20
2 	1.41763981454947 	1.04083408558608e-17 	0.892340872510681 	-0.0483714361223329 	1.57297924491342e-19
2 	1.47736230760124 	1.38777878078145e-17 	0.908833501022886 	-0.0466517205250077 	-2.73407352077573e-16
2 	1.53926080777324 	1.30104260698261e-17 	0.924131786449169 	-0.0449430532755114 	-1.8747838959309e-15
2 	1.60341407047001 	1.04083408558608e-17 	0.938619958490816 	-0.0432038514160004 	1.53038443832862e-15
2 	1.66893489902563 	7.80625564189563e-18 	0.952340807428212 	-0.0414289527676052 	5.7242986092979e-16
2 	1.70277529794134 	6.93889390390723e-18 	0.959179921338669 	-0.0405116051331788 	1.58307781629073e-17
2 	1.73884798288128 	6.93889390390723e-18 	0.966037330953009 	-0.0395218595360523 	1.35825231905527e-20
2 	1.81031024575141 	0 	0.979189400694315 	-0.037547163516715 	1.02172530719967e-19
2 	1.88432958821742 	-6.93889390390723e-18 	0.992001918903818 	-0.0354667950970308 	2.3630770337771e-20
2 	1.9609947218388 	0 	1.00417437447097 	-0.0333390000545477 	1.53929771549017e-19
2 	2.02024009608345 	0 	1.0132657100302 	-0.0316276577462283 	-5.40549505576662e-22
2 	2.06000503604194 	6.93889390390723e-18 	1.01929221256381 	-0.0304125527633095 	0
2 	2.09836474743796 	1.38777878078145e-17 	1.02470425727312 	-0.0292881616624229 	0
2 	2.13536888877257 	6.93889390390723e-18 	1.02973281640661 	-0.0282013412175859 	0
2 	2.17106536369585 	0 	1.03440242170881 	-0.0271505263930618 	0
2 	2.20550038302044 	6.93889390390723e-18 	1.03873511725868 	-0.0261360192645661 	0
2 	2.23871852454378 	1.38777878078145e-17 	1.0427509296237 	-0.0251573943568876 	0
2 	2.27076279075613 	6.93889390390723e-18 	1.04646808880786 	-0.0242139788333917 	0
2 	2.30167466450941 	6.93889390390723e-18 	1.04990317840592 	-0.0233049954014334 	0
2 	2.33149416271872 	6.93889390390723e-18 	1.05307126692198 	-0.0224295728291497 	0
2 	2.36025988816627 	0 	1.05598602031663 	-0.021586765465423 	0
2 	2.38800907947441 	6.93889390390723e-18 	1.05865979898601 	-0.0207755750134364 	0
2 	2.41477765931296 	1.38777878078145e-17 	1.06110374242418 	-0.0199949683097416 	0
2 	2.44060028090272 	1.38777878078145e-17 	1.06332784344995 	-0.0192438916567023 	0
2 	2.46551037287586 	1.38777878078145e-17 	1.06534101307241 	-0.0185212823862641 	0
2 	2.48954018255081 	2.08166817117217e-17 	1.06715113661413 	-0.0178260780220441 	0
2 	2.51272081767801 	2.08166817117217e-17 	1.06876512140986 	-0.0171572233752327 	0
2 	2.53508228671038 	1.38777878078145e-17 	1.0701889361872 	-0.0165136758947682 	0
2 	2.55665353765073 	1.38777878078145e-17 	1.07142764207535 	-0.0158944095572351 	0
2 	2.57746249552636 	1.38777878078145e-17 	1.07248541505033 	-0.0152984175443303 	0
2 	2.59753609853934 	2.08166817117217e-17 	1.07336555949132 	-0.0147247139191197 	0
2 	2.6169003329393 	2.77555756156289e-17 	1.07407051237985 	-0.0141723344790344 	0
2 	2.63558026666389 	2.77555756156289e-17 	1.07460183751141 	-0.0136403369328485 	0
2 	2.65360008179049 	2.77555756156289e-17 	1.0749602088996 	-0.0131278005224837 	0
2 	2.67098310584102 	3.46944695195361e-17 	1.0751453823281 	-0.0126338251869188 	0
2 	2.68775184198056 	4.16333634234434e-17 	1.07515615373697 	-0.0121575303461004 	0
2 	2.70392799814879 	4.16333634234434e-17 	1.07499030280809 	-0.0116980533657427 	0
2 	2.71953251516198 	4.16333634234434e-17 	1.07464451972839 	-0.0112545477505987 	0
2 	2.73458559382185 	3.46944695195361e-17 	1.07411431264598 	-0.0108261811024887 	0
2 	2.74910672106653 	2.77555756156289e-17 	1.07339389277871 	-0.0104121328714428 	0
2 	2.76311469519732 	2.77555756156289e-17 	1.07247603346897 	-0.0100115919224483 	0
2 	2.776627650214 	2.08166817117217e-17 	1.07135189868311 	-0.00962375393799529 	0
2 	2.78966307929018 	1.38777878078145e-17 	1.07001083550845 	-0.00924781867731324 	0
2 	2.80223785741904 	1.38777878078145e-17 	1.06844012408299 	-0.00888298711869831 	0
2 	2.81436826325886 	1.38777878078145e-17 	1.06662467708447 	-0.00852845852199069 	0
2 	2.82607000020647 	1.38777878078145e-17 	1.06454667939373 	-0.0081834274669924 	0
2 	2.83735821672613 	1.38777878078145e-17 	1.0621851568307 	-0.00784708095166297 	0
2 	2.8482475259599 	1.38777878078145e-17 	1.05951546096219 	-0.00751859567628814 	0
2 	2.85875202464506 	1.38777878078145e-17 	1.05650865495083 	-0.00719713569879669 	0
2 	2.86888531136304 	1.38777878078145e-17 	1.05313078335209 	-0.00688185072975328 	0
2 	2.87866050414343 	1.38777878078145e-17 	1.04934200682509 	-0.00657187544601826 	0
2 	2.88809025744591 	1.04083408558608e-17 	1.04509558110272 	-0.00626633034776458 	0
2 	2.89718677854204 	6.93889390390723e-18 	1.04033665847881 	-0.00596432486577652 	0
2 	2.90596184331818 	1.04083408558608e-17 	1.03500088960642 	-0.00566496364173277 	0
2 	2.91442681151997 	1.73472347597681e-17 	1.0290128032609 	-0.00536735714143682 	0
2 	2.922592641458 	1.73472347597681e-17 	1.02228394064679 	-0.00507063798007079 	0
2 	2.93046990419394 	1.73472347597681e-17 	1.01471071559848 	-0.00477398448197426 	0
2 	2.93806879722526 	2.08166817117217e-17 	1.00617195577091 	-0.00447665295289183 	0
2 	2.94539915768638 	2.08166817117217e-17 	0.996526039539797 	-0.00417801977094552 	0
2 	2.95247047508334 	2.42861286636753e-17 	0.985607455785519 	-0.00387763353899943 	0
2 	2.9592919035784 	2.42861286636753e-17 	0.973222440860026 	-0.0035752760468074 	0
2 	2.96587227384055 	2.08166817117217e-17 	0.959143027798156 	-0.00327102869994772 	0
2 	2.97222010447726 	1.73472347597681e-17 	0.943098279103582 	-0.00296533862532384 	0
2 	2.97834361306218 	1.38777878078145e-17 	0.924760498824656 	-0.00265907637474806 	0
2 	2.98425072677325 	1.38777878078145e-17 	0.903722515923289 	-0.00235357563067896 	0
2 	2.98994909265477 	1.04083408558608e-17 	0.879459037660189 	-0.00205064721062443 	0
2 	2.99544608751689 	3.46944695195361e-18 	0.851259113279851 	-0.00175257211557384 	0
2 	3.00074882748522 	6.93889390390723e-18 	0.818104238219738 	-0.00146209859862751 	0
2 	3.00586417721304 	1.04083408558608e-17 	0.778436766537071 	-0.0011819920006176 	0
2 	3.01079875876789 	6.93889390390723e-18 	0.729696523353241 	-0.000913480718832052 	-3.33926095725437e-15
2 	3.01555896020418 	1.04083408558608e-17 	0.667340689461329 	-0.000660656620772306 	-2.22850123533608e-15
2 	3.02015094383281 	1.04083408558608e-17 	0.582798583451448 	-0.000454719358814484 	5.56065145568241e-15
2 	3.02458065419861 	1.04083408558608e-17 	0.461332541888641 	-0.00028800509740523 	4.44989173376938e-15
2 	3.02885382577582 	2.08166817117217e-17 	0.292408284091178 	-9.1071526748333e-05 	0
2 	3.03297599039165 	2.60208521396521e-17 	0.0976628459324013 	1.35705876883611e-05 	0
