/*--------------------------------*- C++ -*----------------------------------*\
  =========                 |
  \\      /  F ield         | OpenFOAM: The Open Source CFD Toolbox
   \\    /   O peration     | Website:  https://openfoam.org
    \\  /    A nd           | Version:  7
     \\/     M anipulation  |
\*---------------------------------------------------------------------------*/
FoamFile
{
    version     2.0;
    format      ascii;
    class       volSymmTensorField;
    location    "7000";
    object      bijDelta;
}
// * * * * * * * * * * * * * * * * * * * * * * * * * * * * * * * * * * * * * //

dimensions      [0 0 0 0 0 0 0];

internalField   nonuniform List<symmTensor> 
15600
(
(8.99475634347534e-05 -6.17740395848441e-07 -8.31621470618925e-25 -4.41194245274326e-05 -1.86904465465088e-23 -4.58143932147871e-05)
(0.000113329090781228 -4.35156728266547e-06 -8.64584885895131e-22 -5.56078918098653e-05 2.25031337788435e-23 -5.77038860742504e-05)
(6.87531641814815e-05 -1.137897967072e-05 -4.63003304882553e-23 -3.31643128032841e-05 -1.21823963305334e-22 -3.55781768576881e-05)
(4.43438624181403e-06 -1.85064569320177e-06 1.17173849679608e-18 -1.92694215269836e-06 -2.7592844399514e-19 -2.50669200630549e-06)
(5.49089667295232e-06 -4.1317810143733e-06 -1.44080617762775e-18 -1.74898776160596e-06 6.70175892699018e-19 -3.7407865631426e-06)
(5.79772844844832e-06 -6.2680480347895e-06 4.82835472791829e-21 -9.54193511667374e-07 -2.76889560588103e-21 -4.8420821668539e-06)
(2.63802530978164e-06 -3.66262886652909e-06 2.29587049062845e-21 1.26322791942202e-08 -1.6890094147597e-21 -2.64986255070682e-06)
(1.61342398866826e-06 -2.63823439650336e-06 3.30580818048304e-20 2.46522527503159e-07 -3.45950371229256e-21 -1.85938864379104e-06)
(1.1413611200513e-06 -2.08643800240209e-06 -1.86353802754763e-19 3.11992454396457e-07 1.76336488687883e-19 -1.4529176555592e-06)
(1.05905325946101e-06 -1.99274957205897e-06 -2.59286696827372e-19 3.26583377875794e-07 1.95539935023685e-19 -1.38522102946718e-06)
(1.06917901400954e-06 -1.96476237637766e-06 -3.63571683847522e-20 3.00657944189336e-07 4.22267004705657e-21 -1.36942608928519e-06)
(1.1936574573684e-06 -2.10886087634183e-06 -5.53200307058241e-25 2.82756324499061e-07 4.16567489595835e-25 -1.47597094630002e-06)
(1.37141382733318e-06 -2.34929372488503e-06 2.0610637595898e-22 2.7900991653517e-07 -1.15261024584057e-23 -1.64992871575081e-06)
(1.65964656181552e-06 -2.78172117566436e-06 9.01236554712072e-21 2.99730358052639e-07 -6.89759181965532e-21 -1.95878922433131e-06)
(2.1400231183729e-06 -3.53386631578376e-06 -7.86056105114144e-21 3.53968366827641e-07 5.94429537443519e-21 -2.49324343736455e-06)
(2.90752934950914e-06 -4.7509209653698e-06 4.13183404591661e-23 4.50432891977038e-07 -8.19515197374509e-24 -3.35695505425117e-06)
(4.01925408121291e-06 -6.46326102443292e-06 -2.9095986078542e-21 5.6060740764071e-07 1.47551835835502e-21 -4.5784878051437e-06)
(5.60452350412702e-06 -8.65232024772678e-06 -6.88824220580203e-21 5.67522252396456e-07 5.18400264894098e-21 -6.17019451304522e-06)
(7.86320157738462e-06 -1.13176000131796e-05 1.35389796044133e-20 3.13874986673762e-07 -7.92568539312088e-21 -8.17462393161565e-06)
(1.0933706504675e-05 -1.42331902248617e-05 1.2300666447247e-20 -4.22286288630596e-07 -9.90301724458804e-21 -1.05082674205387e-05)
(1.48687630583224e-05 -1.69486442627218e-05 1.24783164950449e-21 -1.88697499152348e-06 -7.69815363260669e-22 -1.29778943091304e-05)
(1.98600894237388e-05 -1.91379744999524e-05 8.73346912902261e-22 -4.30239144659622e-06 7.2494992159107e-22 -1.55530316010247e-05)
(2.59888253728446e-05 -2.05710526725788e-05 -2.80167999449305e-20 -7.6954746830306e-06 1.05234928434793e-20 -1.82878637819886e-05)
(3.27453072232212e-05 -2.06537849886979e-05 -3.06335104567616e-20 -1.18211331754771e-05 1.19823380176909e-20 -2.09178980507291e-05)
(3.94285066611406e-05 -1.89062213137529e-05 -1.43310592663604e-20 -1.62360659099225e-05 6.18829140781456e-21 -2.3185484410261e-05)
(4.53757588454511e-05 -1.52509965072337e-05 8.04171053218611e-20 -2.0376030635571e-05 1.24870413876829e-19 -2.49922297911009e-05)
(4.98950036364826e-05 -9.71528972578246e-06 5.36307731049839e-19 -2.36376394467514e-05 8.04632681944829e-20 -2.62494885556011e-05)
(6.12053146104513e-05 -4.38305594732026e-06 7.67919682672522e-19 -2.9749305390348e-05 -2.01305639401547e-19 -3.14465743043203e-05)
(8.59143130640449e-05 -1.69812416611363e-06 2.42599750695429e-20 -4.20558916671707e-05 -1.90064063335023e-19 -4.38452665014342e-05)
(0.000108019732452601 -1.35309853097015e-06 -8.85725049210437e-29 -5.29503759906323e-05 6.60009963040677e-28 -5.5052838958531e-05)
(0.00012067713050433 -1.049724099167e-06 -3.12017491703489e-20 -5.91610317684919e-05 2.340830779096e-19 -6.14976475964451e-05)
(0.0001283011009525 -8.22335874508416e-07 1.42985310388493e-18 -6.29013603649493e-05 2.36962194686139e-19 -6.53801245885746e-05)
(0.000131741951661871 -6.52689274044883e-07 1.67705395798955e-18 -6.45894799233809e-05 -2.49551463291028e-19 -6.71323300253114e-05)
(0.000132110107032194 -5.03994021082448e-07 3.28400162069013e-20 -6.4770371460883e-05 -2.47120694815177e-19 -6.73195376902161e-05)
(0.000129949635924508 -3.75066396251369e-07 7.70648966696131e-23 -6.37112801944545e-05 -1.4455113644354e-25 -6.62184881968415e-05)
(0.00012579889562973 -2.60613945221008e-07 7.57103405968023e-23 -6.1676274539699e-05 -7.91545451498628e-26 -6.41033881502923e-05)
(0.000120068390381142 -1.60626724439033e-07 -7.35659851017519e-23 -5.88666636758632e-05 2.77019067314876e-24 -6.11833698586361e-05)
(0.000113123412205549 -7.33917099598308e-08 2.55888699374477e-20 -5.54615557216153e-05 -2.22024497054096e-19 -5.76445613860079e-05)
(0.000105281893540412 1.07608428853118e-09 -1.49502379769414e-18 -5.16168737083833e-05 -2.21125415420645e-19 -5.36489235453367e-05)
(9.68326449749317e-05 6.30482800475485e-08 -1.57812941677349e-18 -4.7474229771738e-05 2.01707333961018e-19 -4.93436106395455e-05)
(8.80317493577375e-05 1.12913058139658e-07 -2.16761098058827e-20 -4.31591873165614e-05 1.99682698798502e-19 -4.48591029643791e-05)
(7.91048284672773e-05 1.51299914067619e-07 1.7451543782283e-23 -3.87823707004327e-05 -4.54920516895623e-24 -4.03103634483782e-05)
(7.02462653477298e-05 1.79066416806527e-07 -4.53535699321121e-23 -3.4439086068152e-05 -1.1669563959831e-25 -3.57964392737951e-05)
(6.16197700661626e-05 1.97225794818362e-07 7.07111533174434e-23 -3.02095993707846e-05 2.53484775076753e-25 -3.14007495284028e-05)
(5.33593815204386e-05 2.06909362809696e-07 -1.39907208597936e-23 -2.61596279389157e-05 -2.02344712313396e-24 -2.71915952871073e-05)
(4.55710936759821e-05 2.09290845819844e-07 -1.37928397768978e-20 -2.23411382918578e-05 1.61243610265553e-19 -2.32229877910277e-05)
(3.83350821420841e-05 2.0554625914372e-07 1.04124219689583e-18 -1.87934379629605e-05 1.58119467888901e-19 -1.9535782858134e-05)
(3.17082298994154e-05 1.96805364434061e-07 1.00499925631108e-18 -1.5544414124056e-05 -1.26876310876411e-19 -1.61589676002617e-05)
(2.57269121133345e-05 1.84125444722328e-07 9.95196432023462e-21 -1.26118990600339e-05 -1.23614133005515e-19 -1.3111079336128e-05)
(2.04098090190739e-05 1.68468125600356e-07 -1.33352048738851e-23 -1.00050494464259e-05 -7.49911607101135e-25 -1.04016387689369e-05)
(1.57606784120381e-05 1.50689667281334e-07 1.99806300866134e-23 -7.72570573768603e-06 -3.91328707726831e-25 -8.03256266455175e-06)
(1.1770970427219e-05 1.31535074669774e-07 -5.93462638086517e-21 -5.76967424058973e-06 8.57919203692068e-20 -5.99949615777903e-06)
(8.42224056980322e-06 1.11640128169452e-07 4.78171829388335e-19 -4.12791022241015e-06 8.09460421358485e-20 -4.29304230589715e-06)
(5.68831352740896e-06 9.15356972752422e-08 4.07207904508939e-19 -2.78757882680425e-06 -5.25070098932942e-20 -2.8998646542038e-06)
(3.53718032400696e-06 7.16562639571451e-08 3.76558395687089e-21 -1.7329852576555e-06 -4.78237427213385e-20 -1.80365391606161e-06)
(1.93263925578948e-06 5.23480874122433e-08 1.49963683180423e-26 -9.46379183523564e-07 -1.06965003094368e-25 -9.85964253408005e-07)
(8.35665554268354e-07 3.3897765083775e-08 -4.52320141201784e-28 -4.08625159243942e-07 3.68753686702063e-26 -4.26912308523205e-07)
(2.05560302861358e-07 1.64977189762083e-08 -1.46319124061691e-25 -9.97675959858019e-08 -4.04562343652365e-26 -1.05760975409786e-07)
(8.53187337240282e-10 2.32786063557456e-10 -4.78627874462282e-27 5.23188114989296e-10 -3.61532822002083e-26 -1.37596262215992e-09)
(1.80058644410013e-07 -1.48590304782166e-08 -5.96334550766164e-26 -8.7412736813207e-08 -2.10596120027012e-26 -9.26181193821696e-08)
(7.02222992558157e-07 -2.86746717027946e-08 -2.40651439836739e-25 -3.43494201041225e-07 6.22355965986062e-26 -3.586211943989e-07)
(1.52733423097631e-06 -4.10970625939376e-08 1.41038571864922e-24 -7.48105017641801e-07 -9.00028073216269e-26 -7.78995491314913e-07)
(2.61662757823062e-06 -5.21254704172917e-08 5.1721333986775e-25 -1.282239267637e-06 -7.75509666072354e-26 -1.33398807414773e-06)
(3.93275644574664e-06 -6.17791440612662e-08 -2.311350040205e-24 -1.9275854930927e-06 1.18647370965573e-25 -2.00456952165434e-06)
(5.43992028749443e-06 -7.00821666134142e-08 -9.72314590011031e-27 -2.66659098010019e-06 -1.91892888012675e-25 -2.77249747496851e-06)
(7.10388297493402e-06 -7.70714684853043e-08 -4.50299679430257e-24 -3.48247032268906e-06 2.67814344727966e-25 -3.6203264456906e-06)
(8.89195627442058e-06 -8.27907929440176e-08 5.04572058558161e-24 -4.35919703732224e-06 1.98492470730581e-25 -4.53139968123838e-06)
(1.07729253601262e-05 -8.72877243713508e-08 -1.35538414500976e-26 -5.28146706109472e-06 -2.69177266325404e-25 -5.48981119096337e-06)
(1.27169445084593e-05 -9.06109230504104e-08 0 -6.23464759802836e-06 0 -6.48035261021783e-06)
(1.46953893621396e-05 -9.28071900118968e-08 0 -7.20470469441522e-06 0 -7.48843791167523e-06)
(1.66806977695165e-05 -9.39206689879871e-08 0 -8.17812518028034e-06 0 -8.50002232751169e-06)
(1.86461574882699e-05 -9.39887035656912e-08 8.16554170017974e-21 -9.14181261311407e-06 1.18406487902958e-19 -9.5014941418399e-06)
(2.05657182358819e-05 -9.30443662377383e-08 7.79303763586252e-19 -1.00829950694719e-05 2.44638648144534e-19 -1.04795789782976e-05)
(2.24136950910659e-05 -9.1107517572888e-08 1.54777777005688e-18 -1.09890798162225e-05 -7.01691241235028e-21 -1.14211885756007e-05)
(2.41645935167904e-05 -8.81960138575801e-08 7.58157446790559e-19 -1.18475673582988e-05 -2.71874473470576e-19 -1.23133317895178e-05)
(2.57926488982877e-05 -8.43017296332913e-08 -1.11858712289589e-20 -1.26458259392734e-05 -1.3859634786908e-19 -1.31428797007783e-05)
(2.72717811326915e-05 -7.94272983367869e-08 3.55082490590348e-23 -1.33710688165446e-05 1.61780271617083e-24 -1.3896542936328e-05)
(2.8574735925964e-05 -7.35174959984193e-08 -1.01015053994979e-23 -1.40099339920938e-05 3.24305620999427e-26 -1.45604333670034e-05)
(2.96735473210485e-05 -6.65722095007773e-08 1.48282525608723e-20 -1.45487097299116e-05 1.51515770338472e-19 -1.51203010471684e-05)
(3.05375573225729e-05 -5.84526748949928e-08 8.85963249046159e-19 -1.49723658240694e-05 1.51076618592734e-19 -1.55605228747787e-05)
(3.1136032278447e-05 -4.91991987755653e-08 7.94632330170512e-19 -1.5265832569616e-05 -1.56461400769402e-19 -1.586543960094e-05)
(3.14314002313424e-05 -3.86594398330595e-08 -1.62509408075023e-20 -1.54106896536108e-05 -1.54941899430284e-19 -1.60159053256087e-05)
(3.13937975083614e-05 -2.71810460417595e-08 3.85661097699508e-23 -1.53922903581628e-05 -1.92470963628243e-24 -1.59967076579521e-05)
(3.09807662985635e-05 -1.37322585696583e-08 -1.89431398332685e-23 -1.51898227104887e-05 1.62069593018302e-26 -1.57862072522655e-05)
(3.01536964712667e-05 9.95943410035034e-10 -2.00141409100618e-23 -1.47843430383553e-05 -6.45222584513689e-26 -1.53647435488583e-05)
(2.88459595681619e-05 1.9119542607435e-08 -1.33000194652354e-22 -1.41431940662075e-05 5.38504154149121e-24 -1.46983555542934e-05)
(2.70245000334789e-05 3.77922706920679e-08 2.04464059203612e-22 -1.32501343386002e-05 4.19462387169199e-25 -1.37702342114669e-05)
(2.45933876417598e-05 6.21236984292443e-08 -7.21106890284732e-23 -1.20581477395176e-05 -1.05704156282868e-23 -1.25314800822356e-05)
(2.15666131659733e-05 8.37471740259233e-08 -6.58992832849663e-23 -1.05740006387367e-05 9.48133609152862e-24 -1.09893154029032e-05)
(1.78028010982024e-05 1.15436810043651e-07 1.74192886461585e-22 -8.7283676234638e-06 4.35883201096556e-24 -9.07171168905331e-06)
(1.35215528244959e-05 1.35964043556263e-07 -7.39309669471076e-25 -6.62859179892421e-06 -5.2378824490168e-24 -6.89089355075895e-06)
(8.44842979253641e-06 1.63316856613275e-07 3.81167484662075e-23 -4.13735368920182e-06 8.53678694675999e-25 -4.30978303911643e-06)
(3.7218172211876e-06 2.87988732343394e-07 5.76807329335065e-27 -1.81032699308788e-06 1.47982700293009e-24 -1.91091689569777e-06)
(2.80986956016983e-06 5.02856854209116e-07 8.93613159779379e-23 -1.33932524669697e-06 -3.18864274874804e-22 -1.47010323839383e-06)
(3.53330214167368e-06 1.1842136780569e-06 -7.41731582471939e-21 -1.59043785181947e-06 -1.57934258334462e-21 -1.94228154711581e-06)
(4.39872608126996e-06 2.10678174281081e-06 7.20654948424721e-21 -1.81515876938103e-06 1.80493102950648e-21 -2.5827923966784e-06)
(5.63337029536324e-06 3.56370550987931e-06 -3.10781150113222e-20 -2.03324787493066e-06 -1.2823697116653e-20 -3.59904259967059e-06)
(7.04148956150025e-06 5.56392594684078e-06 -1.96590962510403e-20 -2.09296360566189e-06 -7.23403670055118e-21 -4.9470416949038e-06)
(8.64991531810935e-06 8.26820398060677e-06 1.83077062151473e-20 -1.91130327704322e-06 9.9456916460436e-21 -6.73659086168969e-06)
(1.07510044229955e-05 1.20189201838635e-05 -1.87977578864716e-20 -1.49611977838905e-06 -1.1441786418449e-20 -9.25210873439511e-06)
(1.32946415474424e-05 1.67973138876087e-05 -2.30118778287319e-22 -8.07966642595761e-07 1.90741900852827e-21 -1.24829296514259e-05)
(1.62444241497301e-05 2.24401000700449e-05 2.12786705889882e-20 9.00672892538935e-08 1.36612378402428e-20 -1.63295920714258e-05)
(1.96032000830651e-05 2.88027269630647e-05 -1.64291379035929e-20 1.10311751546466e-06 -1.30446087798248e-20 -2.07001069453808e-05)
(2.35359113219464e-05 3.58072779208199e-05 1.32116267070333e-21 2.04230182910788e-06 -2.973349963436e-23 -2.55705412214949e-05)
(2.73533085176503e-05 4.23359648593729e-05 -1.92125841976056e-20 2.80289823428147e-06 -1.5326763918708e-20 -3.01471616989167e-05)
(3.02300221629368e-05 4.75475408984878e-05 -1.81850040535085e-21 3.5576837772826e-06 -1.21036287946894e-21 -3.37775716552944e-05)
(3.23268514458405e-05 5.20093508660152e-05 -1.44911567173465e-21 4.51218002265002e-06 -9.45472160730012e-22 -3.68279819689499e-05)
(3.38933204648551e-05 5.61757151683075e-05 -1.06499319729262e-21 5.73744361186707e-06 -6.65269726546678e-22 -3.96188772248695e-05)
(3.52745728134421e-05 6.05841334328389e-05 -1.8565331821237e-20 7.27669504897178e-06 -1.32229163592023e-20 -4.25385050346207e-05)
(3.71255200769458e-05 6.63359290909653e-05 -1.46109494456071e-21 9.24909263477481e-06 4.551807496781e-23 -4.63607031098275e-05)
(4.21124580163058e-05 7.69208144437269e-05 -1.2007986413918e-20 1.15071319447326e-05 -1.10402226652991e-20 -5.36035073005821e-05)
(5.33880463788391e-05 9.45027029950413e-05 -1.38386101874912e-20 1.2650743279062e-05 -1.12273430488938e-20 -6.60189819825389e-05)
(7.37514059533982e-05 0.000119137085763495 1.27418915761273e-20 1.03807380030555e-05 1.07601030669435e-20 -8.4106909360186e-05)
(0.0001137012866102 0.000156557123796225 2.56750465263786e-21 -1.59287049575112e-07 7.82834188667888e-22 -0.000113507943771915)
(0.000190835990926466 0.0002070529838654 -3.10956183346113e-20 -3.10254022971757e-05 -1.91529495684757e-20 -0.000159762655039419)
(0.000331663884914853 0.000250453611494923 1.58323603366786e-20 -0.000105731025402865 8.06314294020633e-21 -0.000225865093207395)
(0.000407160595544745 0.000178993740770851 1.5172639051239e-21 -0.000175035560190561 4.13132016714052e-22 -0.000232055411768296)
(0.000288327382762356 5.81067329115926e-05 1.01432173835064e-22 -0.000138062830669129 -2.22208772092083e-22 -0.000150219481741669)
(0.0001334934725679 6.75143932842985e-06 -8.1365838691851e-22 -6.55184074043043e-05 -3.20610921563655e-23 -6.79546767217347e-05)
(8.05879583849626e-05 -3.85678334723099e-07 -1.87150153472353e-25 -3.95289656718027e-05 1.53465553109884e-23 -4.10466774783928e-05)
(0.00175464739368898 -6.38195287470715e-06 7.4802054906837e-24 -0.000861620588549605 -1.48486741636812e-25 -0.000892758950668727)
(0.0016884872977502 -5.15619381854764e-05 2.42626956116317e-20 -0.000831988173605389 -4.31169435590736e-22 -0.00085624222578724)
(0.00127158108301314 -0.000153835764291171 6.61235902277888e-19 -0.000621551069298883 2.16881207438553e-18 -0.000649835043704144)
(0.000449757121223474 -0.000119410745593534 -2.99588918247324e-17 -0.000209640582515094 5.46248182437143e-18 -0.000240044518150878)
(1.07049314374857e-07 -2.89245687288959e-06 1.68187823136404e-18 3.65736991602902e-06 -4.83946408847871e-18 -3.76329013045475e-06)
(5.12971949958756e-05 -6.65271162760855e-05 9.21371873419669e-19 -2.77369946072586e-06 1.19912442086966e-19 -4.85089413973168e-05)
(3.25042539014333e-05 -5.01691892436742e-05 -4.23089251250013e-20 2.85456210111436e-06 3.11367685615862e-20 -3.53482104788516e-05)
(2.23740512564171e-05 -4.0443774071852e-05 -8.67042323919442e-19 5.68058616700537e-06 5.08836899032074e-20 -2.80462227151371e-05)
(1.76364842919738e-05 -3.53230934666777e-05 -1.19811401092101e-17 6.73217796556647e-06 9.47194203335567e-18 -2.43613531206903e-05)
(1.74427534904485e-05 -3.55647249303581e-05 -1.12130718258852e-17 7.1376105660364e-06 1.03164385288835e-17 -2.45729914217949e-05)
(1.91120686903867e-05 -3.72883899766831e-05 1.14338364760381e-18 6.78464156522492e-06 -1.38066271632509e-19 -2.58889427960269e-05)
(2.25138594143403e-05 -4.17373901968496e-05 6.16583052214473e-24 6.60619577415968e-06 -5.0154273496523e-24 -2.91113209187974e-05)
(2.72549167324739e-05 -4.84880314907176e-05 6.62110300565065e-21 6.70397843495705e-06 -4.21353556242101e-22 -3.3948709536007e-05)
(3.41975486323164e-05 -5.92114490005661e-05 -1.90928761706558e-19 7.38060658808068e-06 1.41507140093723e-19 -4.15656842680214e-05)
(4.43932091425812e-05 -7.57228547106186e-05 -1.1964739401864e-19 8.85528000062027e-06 8.82848365973436e-20 -5.32325177907291e-05)
(5.83359537435794e-05 -9.89766338923931e-05 1.12927982565854e-20 1.13092986222671e-05 -3.8452862143764e-22 -6.96243629680163e-05)
(7.6428210319604e-05 -0.000128122280972239 -1.41753537445081e-19 1.39434794226772e-05 1.23676853832293e-19 -9.03445836565756e-05)
(0.00010028631043269 -0.000161484438002268 3.87461915622691e-19 1.4438599903313e-05 -2.87802793218541e-19 -0.00011469049974502)
(0.000131395377487685 -0.00019682472709884 -2.39166444973371e-19 1.03530223653011e-05 1.62708620904102e-19 -0.000141705883836234)
(0.000171031913132858 -0.000230251314384039 -2.45298276202857e-19 -1.23313179496324e-06 1.8987804090608e-19 -0.000169747851889383)
(0.000221402685029699 -0.00025789160329735 3.12492402090014e-19 -2.33713482956949e-05 -2.19036647234783e-19 -0.000197971939212488)
(0.00028385151554858 -0.000275983764762858 -2.07310578168623e-19 -5.76536884119034e-05 6.79506678935858e-20 -0.000226129981357691)
(0.000355257542003991 -0.00028076694760215 2.74066010537982e-19 -0.000101858057803059 -1.05700500457954e-19 -0.000253323479556601)
(0.0004315277392635 -0.000268727240058064 5.41233931690216e-19 -0.000152624240318196 -1.97161546058182e-19 -0.000278819844626485)
(0.00050798820347388 -0.000237718141608407 2.4107271121768e-22 -0.000205577786533456 1.39780201761123e-20 -0.000302319711956339)
(0.000582500488603882 -0.000189365051058663 -1.29329064974505e-18 -0.000256754768292719 -1.9096985208953e-18 -0.000325648016135905)
(0.000669361536054563 -0.00012697108647013 -5.36160187282189e-17 -0.000311031903192004 4.96879922472474e-18 -0.000358222155468179)
(0.000722203668878655 -6.14313056233659e-05 -5.26533376157967e-17 -0.000345910468911564 5.95078158216798e-18 -0.000376180334580178)
(0.000760691191773931 -2.71576982091381e-05 -1.74678411817241e-19 -0.000370157002885832 2.11114356868631e-18 -0.000390417052058798)
(0.00078993587382629 -1.42170370856171e-05 1.40930045444805e-27 -0.000386501069101059 -1.31292337556629e-26 -0.000403313798485062)
(0.000792999183902096 -5.1174523446024e-06 2.56298111768178e-19 -0.000388347893795432 -2.11468673522816e-18 -0.000404529918993854)
(0.000775096373984016 7.9969497326862e-07 -5.83426660823823e-17 -0.00037975317319367 -1.99044772051501e-18 -0.000395224621545958)
(0.000743964688730454 4.91903022500029e-06 -5.86114588102609e-17 -0.00036455376387613 1.80475998279712e-18 -0.000379297124336971)
(0.00070348057420185 7.87582402583462e-06 -2.82190216796888e-19 -0.000344721230077808 1.96384531506868e-18 -0.000358651737842061)
(0.000656440234479846 9.96283763374411e-06 1.12422378378229e-23 -0.000321654072560855 1.31178702265345e-22 -0.000334685746153568)
(0.000605201721675766 1.13889342966567e-05 4.08114944768885e-23 -0.000296519142961428 -8.1413804824958e-23 -0.000308589992457975)
(0.000552360247610414 1.23036686315834e-05 -2.14497897604184e-23 -0.00027059396909151 -4.05582974918587e-23 -0.000281681765537945)
(0.000499044515960234 1.27986902026495e-05 -2.2842830275348e-19 -0.00024443533724585 1.57242426109863e-18 -0.000254532811234265)
(0.000446195433961882 1.29440916928266e-05 4.44521313594292e-17 -0.000218506724639478 2.66694110773154e-18 -0.000227620416368198)
(0.000394599640142246 1.27982660310897e-05 4.31139805596113e-17 -0.000193194891452223 -1.22115062057684e-19 -0.000201344339347285)
(0.000344905553992136 1.24123382964545e-05 2.00529750096425e-19 -0.000168818342992695 -1.30746619937376e-18 -0.000176034395399261)
(0.000297643671745592 1.18318715732341e-05 -3.24119338033453e-22 -0.000145637443083642 -1.21465504662472e-23 -0.000151960635911901)
(0.000253240144122625 1.10980961901425e-05 4.11241378431228e-22 -0.000123861160836953 4.49339431360593e-23 -0.000129340177351874)
(0.000212029267056734 1.02479332375535e-05 -3.81021508208575e-22 -0.000103653282029162 -3.75257770288246e-24 -0.000108343478733323)
(0.000174263986116249 9.31431191558632e-06 2.63634314972752e-22 -8.51375980118845e-05 -2.30034551757835e-23 -8.9099655534447e-05)
(0.000140125360027357 8.32612058225273e-06 1.60304666131642e-19 -6.84025926500454e-05 -9.63443099843536e-19 -7.17012548496035e-05)
(0.000109731052474895 7.3083952924659e-06 -2.55235897333591e-17 -5.35056302646866e-05 -2.48685597887462e-18 -5.62085579563961e-05)
(8.31430273836881e-05 6.28244323842615e-06 -2.29602939422371e-17 -4.04767546567541e-05 -8.99748061479447e-19 -4.26534754045803e-05)
(6.03745824080313e-05 5.26609383141239e-06 -1.32510142193317e-19 -2.93221526075562e-05 6.40488718103877e-19 -3.10431159343082e-05)
(4.13967631782703e-05 4.27395743803978e-06 9.08158892663201e-23 -2.00273117873353e-05 1.87160130135193e-23 -2.13630418374284e-05)
(2.61442416588267e-05 3.31773933001169e-06 -7.27595671585069e-23 -1.25599101461195e-05 -1.15984666510672e-23 -1.35802570281503e-05)
(1.45206931281365e-05 2.40655318779143e-06 1.10069841831349e-19 -6.87245761383891e-06 -3.35460969896744e-19 -7.64594150244564e-06)
(6.40370605011765e-06 1.54724938273855e-06 -6.36949940392681e-18 -2.90470520234326e-06 -1.75732469106666e-18 -3.49795135741812e-06)
(1.64924827099916e-06 7.44729099052378e-07 -3.36200827056633e-18 -5.85835315286846e-07 -1.40641690673856e-18 -1.06309399561762e-06)
(9.57046906694361e-08 2.24674119598111e-09 -9.18833313896618e-20 1.63559864326546e-07 -1.41482927448682e-21 -2.59186791182246e-07)
(1.56750240801957e-06 -6.78326442372554e-07 2.56426096515008e-25 -5.70294837179194e-07 3.47268328235546e-25 -9.96908468389612e-07)
(5.87834089706085e-06 -1.2962173094265e-06 2.54979451392867e-25 -2.69596526629854e-06 7.2495770690526e-25 -3.18142110897744e-06)
(1.2834118457044e-05 -1.85077603197758e-06 2.36743013935869e-23 -6.11826189748058e-06 -3.62481435796506e-24 -6.71384220546634e-06)
(2.22354207809129e-05 -2.33998365489644e-06 -2.92900998323416e-23 -1.0739494997113e-05 1.95774407616455e-24 -1.14924776956824e-05)
(3.38793963089518e-05 -2.7646391184731e-06 1.23092714307775e-23 -1.64600337740976e-05 -9.86103375754544e-25 -1.74141377710464e-05)
(4.75616032558807e-05 -3.12969012140981e-06 -3.57551489612533e-25 -2.31793301915124e-05 2.27717052714771e-26 -2.43749598450928e-05)
(6.3077687499009e-05 -3.43808076710491e-06 -3.22904591732571e-23 -3.07971875370362e-05 4.7162807854981e-24 -3.2270817748427e-05)
(8.02246235175429e-05 -3.69147428214258e-06 6.06810139657409e-23 -3.92141362900501e-05 -6.11273833629353e-24 -4.09981865414617e-05)
(9.88015153169433e-05 -3.89196227895111e-06 -2.26819247228197e-24 -4.83316697073536e-05 -2.87795979381911e-24 -5.04547076834921e-05)
(0.000118610104775308 -4.0417774878224e-06 -2.68629594695758e-23 -5.80525829774082e-05 4.15486559502982e-24 -6.05393581740853e-05)
(0.000139455207314325 -4.14302295455837e-06 9.73730035192734e-23 -6.82811869369756e-05 -2.88859148108165e-24 -7.11526724408239e-05)
(0.000161144835569047 -4.19759904682273e-06 -1.68556824603787e-22 -7.89233610661147e-05 4.39850031445908e-24 -8.21968129928829e-05)
(0.000183490094136286 -4.20716233738126e-06 6.89707394399806e-23 -8.98865016526765e-05 -1.58977775456452e-24 -9.3575517020957e-05)
(0.000206304854607009 -4.17308248816214e-06 -7.38525118803215e-23 -0.000101079360837298 1.50755264801405e-24 -0.000105193932433847)
(0.000229405189758983 -4.09639387776954e-06 -1.63049370945413e-25 -0.000112411768458636 2.95072458843753e-27 -0.000116958330292159)
(0.000252608606141853 -3.97776645542926e-06 -8.1538991029214e-23 -0.000123794253614919 2.04912307339294e-23 -0.000128775715948492)
(0.000275732977064397 -3.81743191946839e-06 -1.47851979786772e-19 -0.000135137521254265 -1.66539248493699e-18 -0.000140553285607429)
(0.000298595300597153 -3.61517652484594e-06 -4.87389342054544e-17 -0.000146351839156298 -2.88247643065588e-18 -0.000152197797535204)
(0.000321009989957081 -3.37019387840142e-06 -1.00131364123736e-16 -0.000157346201019501 1.07061746831469e-18 -0.000163614699618763)
(0.00034278708596805 -3.08114980555609e-06 -5.12323024912046e-17 -0.00016802744065845 4.22561288513052e-18 -0.000174707227899489)
(0.000363729558664611 -2.74583379930542e-06 1.80790700967671e-19 -0.000178298915382828 1.93908721933521e-18 -0.000185375025212412)
(0.000383630910443846 -2.36147145853091e-06 -8.50222728595337e-22 -0.00018805930722081 7.78789373327963e-23 -0.000195512943474018)
(0.000402270680617923 -1.9238194741387e-06 4.53554472762289e-22 -0.000197200440570344 2.26098827768765e-23 -0.000205008731277318)
(0.000419411566633893 -1.42827417386792e-06 -2.25435834724132e-19 -0.000205605815918645 -2.13739463027731e-18 -0.000213741621815814)
(0.000434791481708454 -8.67523581669167e-07 -5.92014648102296e-17 -0.000213146764137822 -2.05857585933207e-18 -0.000221578237451385)
(0.000448121380419363 -2.3484454827732e-07 -5.92377925886058e-17 -0.000219681368296218 2.28461869752766e-18 -0.000228371493823168)
(0.00045894058757448 4.80141381305222e-07 2.45702248920157e-19 -0.000224983568328639 2.27779435184374e-18 -0.000233886846174681)
(0.000466630565511009 1.28123492888666e-06 -1.94846836809226e-22 -0.000228749086866029 2.87649481346634e-23 -0.000237810128471421)
(0.000470854190777404 2.19352937084813e-06 1.47947767557677e-21 -0.00023081181837486 -5.23188665682256e-23 -0.000239970374090485)
(0.000471235222024269 3.22782532170421e-06 -1.31631423721647e-21 -0.000230985668703637 -1.23216278971168e-22 -0.000240177492866727)
(0.000467055318024858 4.4338220723099e-06 1.42617586050775e-21 -0.000228917326481932 1.28904742002005e-22 -0.000238066564430885)
(0.000457610775098697 5.80189763666722e-06 -3.39516605716749e-21 -0.000224257531305878 1.82029040705542e-23 -0.000233283251818076)
(0.000441708795732419 7.43239998934382e-06 1.97519942038529e-21 -0.000216418182758887 -2.67712959780506e-23 -0.000225223039304374)
(0.000418407922496967 9.25713796393882e-06 1.96577257386865e-21 -0.000204926104448902 1.01464353218603e-22 -0.000213417786308998)
(0.000385619893698407 1.14926158071372e-05 -3.22543804574337e-21 -0.000188742890991843 -9.10737223622996e-23 -0.00019681795141601)
(0.000341874053879961 1.39312157558655e-05 6.61332641976783e-25 -0.000167110931017333 5.3532692427934e-24 -0.00017471070440946)
(0.000283366920696549 1.67019793152558e-05 3.79267929062315e-23 -0.000137935302205664 2.21958521232923e-24 -0.00014538799772949)
(0.000223968764752553 2.38456213730078e-05 1.59097305990675e-20 -0.00010787424014707 1.31574021705744e-21 -0.00011605970321238)
(0.00019508878644024 3.5746685260263e-05 1.23218774045038e-19 -9.20621261069252e-05 1.52188455410214e-20 -0.000102995758515579)
(0.000181802010089725 5.38939701876035e-05 2.55240573705733e-19 -8.22525400589773e-05 6.01745500959995e-20 -9.9519611161512e-05)
(0.000180943166921073 7.49503704110527e-05 -8.56588319730092e-20 -7.68023306740095e-05 -4.54640393885683e-20 -0.00010410960024339)
(0.000182343314226037 9.9696607369417e-05 4.62155088869823e-19 -7.00099313664586e-05 1.43249255657261e-19 -0.000112299689583376)
(0.000185749395069254 0.000127976749762409 4.24783473425595e-19 -6.15499526861007e-05 1.96438123812995e-19 -0.000124162190000915)
(0.000189873944300966 0.000160382176372553 -4.18731328572245e-19 -5.02894752489352e-05 -2.0224895730756e-19 -0.000139542602084708)
(0.000196502637870012 0.000198511048992608 4.16321707890584e-19 -3.66253388900393e-05 2.1166448498552e-19 -0.000159829345380998)
(0.000206971961862224 0.0002433316482909 -3.87883455252463e-19 -2.10424652174949e-05 -2.38601056941485e-19 -0.000185873728949275)
(0.000222329685141864 0.000294672825636536 -3.6189846014882e-19 -4.60126285803668e-06 -2.399801134072e-19 -0.000217663116818235)
(0.000242343540894409 0.00035186121018587 1.49785870130587e-19 1.21661583957238e-05 1.06841717721324e-19 -0.000254433361647875)
(0.000268355414757911 0.000414684641092658 -1.83580087702279e-19 2.77834922639731e-05 -1.17647190740366e-19 -0.000296050083114559)
(0.000299135203497579 0.000479657280597299 3.11882227729978e-19 4.11476266282928e-05 2.50890655626536e-19 -0.000340180765689721)