/*--------------------------------*- C++ -*----------------------------------*\
  =========                 |
  \\      /  F ield         | OpenFOAM: The Open Source CFD Toolbox
   \\    /   O peration     | Website:  https://openfoam.org
    \\  /    A nd           | Version:  7
     \\/     M anipulation  |
\*---------------------------------------------------------------------------*/
FoamFile
{
    version     2.0;
    format      ascii;
    class       volScalarField;
    location    "7000";
    object      epsilon;
}
// * * * * * * * * * * * * * * * * * * * * * * * * * * * * * * * * * * * * * //

dimensions      [0 2 -3 0 0 0 0];

internalField   nonuniform List<scalar> 
15600
(
0.632530787322575
0.576588638087287
0.339389479428215
0.142215332773852
0.0402260160684268
0.0294473406541447
0.0311139842532723
0.0230952705315443
0.0172201722502469
0.0139008823728799
0.0116662398614214
0.0103882306394756
0.00994056586487604
0.0102005313846851
0.0111948549343845
0.0129272306957529
0.0153822890311292
0.0183611119948446
0.0218335423584653
0.0257288295694062
0.0298627248994379
0.0340155548302574
0.038457976114562
0.0433743256808257
0.0485678845362316
0.0540188583325733
0.0597191632555116
0.0658031952212885
0.0824476292183455
0.105123925086558
0.124493919505942
0.141429194864342
0.156901328851708
0.171103946300123
0.183952603772993
0.195324534330087
0.205427184904941
0.214268727036082
0.22188009346389
0.228298331748482
0.233571511658608
0.237757648727609
0.240923910292612
0.243143874461269
0.244495538558984
0.245058747244545
0.24491332471778
0.244137238715048
0.242805313729929
0.240988175947366
0.238751600297351
0.236156053215715
0.233256518813915
0.230102469157754
0.226738014009171
0.223202102316525
0.21952890731424
0.215747950890184
0.211884129151071
0.207959473947685
0.2039918933128
0.199996226115746
0.195985220943396
0.191968474780203
0.187953305695202
0.183945117891173
0.179947493894221
0.175962360962896
0.171990123972444
0.168029755033516
0.164078889766355
0.160133823033809
0.156189583254742
0.152239786160789
0.148276743842879
0.144291045561445
0.140271862011743
0.136205924960834
0.132078449089314
0.127870773672761
0.123564763459165
0.119110895907387
0.114534284791342
0.10984523894239
0.104988757909218
0.0998707310744373
0.0944332178024838
0.0885439622249267
0.0821383048448888
0.0750206424343837
0.0669355733876351
0.0567363391297947
0.050640745974366
0.0556132505137274
0.0624626855041726
0.0718814916047078
0.0826333285120508
0.095251629995029
0.110565742755674
0.129379936009795
0.149703304817715
0.171545911656824
0.194370817492827
0.217499282848588
0.236809778410916
0.255333743186819
0.275394866828814
0.298297450698677
0.326746256845777
0.367392735437199
0.431349989357825
0.511070766221577
0.611350517237015
0.750052810937328
0.919740662844125
1.03633844583368
0.862791813252443
0.669350751483178
0.544891812112524
0.594508679051214
2.29409234112392
2.10420456267421
1.41416431349457
0.602881396206875
0.159358707581663
0.107587025226834
0.11336344978503
0.0849189958882545
0.0633122765170616
0.0510037591603678
0.0427363765776822
0.038003069222872
0.0363008164564075
0.0372214740946055
0.0408700817183791
0.047260579792168
0.0562785433715527
0.0672169529224571
0.0798739865412402
0.0938169481944091
0.108238453602952
0.122528019214516
0.137451267072455
0.153269299171553
0.169549773752112
0.186694000975627
0.206666024969681
0.238340779726685
0.295125893233646
0.355355303696744
0.403688393257199
0.445013230312281
0.481858644591166
0.515121593681192
0.544976660113049
0.571144352701855
0.593915040537806
0.613475092194523
0.630029507392753
0.643768765877641
0.654883970332762
0.663566795303501
0.670010420344598
0.674406860901754
0.676945317012232
0.677809511707876
0.677175915417879
0.675211909907754
0.672074622441617
0.66791000689533
0.662852406960057
0.657024328839236
0.650536557222358
0.643488440845282
0.63596838831958
0.628054430718598
0.619814984442205
0.611309234460726
0.602586965273937
0.593692145932593
0.584661071199533
0.575523209004664
0.566303331164249
0.557020262035035
0.547687915344841
0.53831597535181
0.528910117178426
0.519472271346661
0.510000826380705
0.500490742051983
0.490933646864386
0.481317752047728
0.471627848476535
0.461844921611781
0.45194610668469
0.441903753950309
0.431685545441624
0.421252406962846
0.410559365354933
0.399550943382605
0.388167996056793
0.376321360135238
0.364167288661081
0.351669806898742
0.338590778639697
0.324681243932982
0.309715462091804
0.293356858675552
0.275260360216209
0.254941306912487
0.231398484653035
0.201253339607955
0.179163221134119
0.187784481153055
0.208844809518559
0.238434336178296
0.273225998877046
0.314662917205039
0.365340119182346
0.427517351255007
0.496068865586685
0.570516677582075
0.649424136376418
0.730598031118568
0.802784844892434
0.873429535336319
0.949887028304134
1.0369986518955
1.14378908361302
1.29203669404236
1.5170422388095
1.7984434353671
2.14790289221254
2.60802740067487
3.14851519615794
3.56262714310118
3.3671257500615
2.87038591845117
2.34315947979826
2.27019904717669
3.21883755847473
2.86757234409895
2.24900665402022
1.24545542544579
0.335145567582104
0.19420419967151
0.198920536407851
0.153160099654224
0.115857810186769
0.0935393205407377
0.0784003733221479
0.0694759311913394
0.0660051166894605
0.0672039460842343
0.0730864245296757
0.0833382162202306
0.0972200970111449
0.112971627108816
0.129572718483107
0.145823771510968
0.160530655832179
0.173307836435955
0.18558539910161
0.198431675699928
0.212420723376434
0.22916834441922
0.251430536725141
0.281432480088925
0.326104164937934
0.372430081602807
0.41080490591107
0.44430501490965
0.474056363808475
0.500141735643062
0.522509420387635
0.542480093331755
0.56005860514383
0.575381048336811
0.58857171483322
0.599747784295528
0.609027508504231
0.616530625540363
0.622378968628492
0.626695269324635
0.629602042034424
0.631220067795805
0.631667105683958
0.631056658017777
0.629497004657346
0.627090430670319
0.623932697744092
0.620112688943987
0.615712245598564
0.610806156550022
0.605462273224536
0.599741727377015
0.593699185847848
0.587383173671319
0.580836063589078
0.57409520734675
0.567193000923023
0.560156947124998
0.55301038875604
0.545772615108512
0.538459117308605
0.531081946226621
0.523649933062099
0.516168865225679
0.508641622125441
0.501068264745763
0.493446080912037
0.485769563653178
0.478030342231847
0.470217011010544
0.462314912324968
0.454305740475067
0.446167119232807
0.437871836145563
0.429387091225805
0.420673126363514
0.411682114602878
0.402372009241034
0.392458820824699
0.38200932844733
0.371023861866818
0.359328509402912
0.346719444461235
0.332900317912108
0.317526887374582
0.300016985151066
0.279769314818612
0.253489202484254
0.23321578326069
0.237983565419957
0.25481497620844
0.282327244058909
0.318136901503883
0.362599354927023
0.417735074169136
0.48504312662395
0.561910910900666
0.646898957340097
0.738910685930899
0.836097194526246
0.932931741915233
1.03317338999867
1.14346031444073
1.26998979393708
1.42119547409607
1.6138478214965
1.86968274507729
2.17255579903751
2.51061535174786
2.87042897931364
3.20780240881492
3.44386080236407
3.45024097933955
3.44352089066026
3.43908004942153
3.44609353397378
2.77716011266911
2.48122403099513
2.16791344233331
1.65723218303986
0.623412532668727
0.270044910095942
0.242411220298505
0.194632374976346
0.152260733696522
0.124028100056109
0.104127404402819
0.0918066311455102
0.0862702915199882
0.0863982400473367
0.0916438058682619
0.100834444847391
0.112322193661719
0.124035850881838
0.135086265187625
0.14490695867217
0.153327340596034
0.160872429834014
0.168931325756225
0.178466697569779
0.190260740411319
0.205768004568397
0.226682531329766
0.253616383430574
0.288104560833791
0.32235650965531
0.35138004575888
0.376994473007505
0.399692244946888
0.419339097958936
0.436647855840108
0.452194129713408
0.465964785789893
0.478049335024658
0.488525881534201
0.49747228809108
0.504969123338323
0.511099824140578
0.515950520193661
0.519609116458601
0.522164244257249
0.52370411453291
0.524315447599851
0.524082511185579
0.523086316185655
0.521403977773491
0.519108240426387
0.516267148721919
0.512943849380435
0.509196519898766
0.505078386252641
0.500637830155958
0.495918575069462
0.49095980032998
0.485796248226451
0.480458731876311
0.474974399893593
0.46936682240773
0.463656279605309
0.45786006291525
0.451992597181835
0.446065665615014
0.440088597932957
0.434068415788703
0.428009949520994
0.421915928934212
0.415787036455562
0.409621934224584
0.403417234752214
0.397167452171415
0.390864854530693
0.384499324470916
0.378058014708438
0.371525111318068
0.364881096598436
0.358102497354221
0.351159562654615
0.344031016602449
0.336572513565127
0.32863342308247
0.320308023581038
0.311528479490951
0.302167745109634
0.292047259309249
0.280934106968649
0.268458971582108
0.254247056810563
0.236315724431365
0.221270553820497
0.220761260115033
0.229901074147928
0.248433765105704
0.274932857138881
0.308971875176012
0.351429978627511
0.40293250494079
0.462418023078723
0.52866147714041
0.600836104444753
0.677727468835142
0.757475875153615
0.841514946142957
0.933681106123161
1.03849963939073
1.16143170438038
1.31077988668548
1.49344473935136
1.7002339029323
1.9168045887902
2.1219751734128
2.29517839360711
2.43509035499573
2.5233194349416
2.60620755461036
2.79640694356172
2.92211122818938
2.22823962915661
2.03510321061216
1.87634862852814
1.76719503531707
0.96477758181236
0.357645085741271
0.24574370464843
0.198586454635412
0.160313036029337
0.131952366441071
0.111028696991743
0.0975682554013677
0.0908299604702017
0.089672158564274
0.09316119023107
0.099794791109739
0.107875629071156
0.115885617410934
0.123320851617904
0.129995383348084
0.136083900317536
0.142204081568614
0.149327853129386
0.158191724106287
0.169597843951346
0.184759307171056
0.204798544693733
0.229764064590557
0.258131944265705
0.284753345444836
0.307814637586229
0.328387516320282
0.346644579011996
0.362674862049991
0.3769906746176
0.389869681256473
0.401311859909529
0.411382651564668
0.420139190066152
0.427640687323308
0.433949282507252
0.439130211518997
0.443251354024985
0.446382486980618
0.44859434186178
0.449957667853357
0.450542323076464
0.450416478715058
0.449645936322144
0.4482935852171
0.446418987407903
0.444078086060587
0.441323015427514
0.438202017167805
0.434759427463233
0.431035757631239
0.427067837423689
0.422888773112691
0.418528219640654
0.414012588928789
0.409365337910942
0.40460706090971
0.399755650283743
0.394826583285392
0.389833021312065
0.384785976619536
0.37969447045843
0.374565660104014
0.369404943645855
0.364216047287515
0.359001083506047
0.353760595850545
0.348493557606738
0.343197370354041
0.337867776438453
0.332498812344723
0.327082573600664
0.321609144416278
0.316066057821371
0.310438332202388
0.304706470798181
0.298856898412417
0.292813325011754
0.286453209762986
0.279803424072918
0.272849412207271
0.265519200564314
0.257708015826321
0.249265653343175
0.239978432667413
0.229592721452379
0.217005691323569
0.205393676817351
0.2020221612025
0.206613879360741
0.219162591055599
0.238774315803983
0.264822794318256
0.297560452991846
0.337149159422509
0.383035299876251
0.434314343743746
0.49031481026174
0.550171571476611
0.613240107173517
0.680175066930411
0.753107532685293
0.834971090851829
0.929247127482745
1.0402085760512
1.16957107526559
1.31215985987202
1.45822382936436
1.59255305968537
1.70531915904704
1.80849612455124
1.91856708759978
2.01197933023399
2.16830360817177
2.28400989398473
1.81879938887674
1.69751892182639
1.60408684196994
1.69772444587176
1.2267068333277
0.480998854105237
0.245543746401524
0.187497927160003
0.153202049583324
0.126964964894711
0.107256111081917
0.0944184363722289
0.0877418366280911
0.0862014035413891
0.0887403335349401
0.0938541080923004
0.100032888567223
0.106181758658428
0.111980658984305
0.117388782322395
0.122681443845837
0.128428141845898
0.135350971463943
0.14407273726964
0.155357780316225
0.170194329939697
0.189308747462347
0.212242118103331
0.236307877999009
0.258129278632323
0.277401770794401
0.294732976494494
0.310181511776521
0.323917832851814
0.336267522527837
0.347382752111633
0.357272871290315
0.365989159245398
0.373577304983351
0.380085896249423
0.385566386559479
0.390073286565362
0.393663607137931
0.396396218897375
0.398330998081893
0.39952801808671
0.400046751579069
0.39994537993619
0.399280194463891
0.398105119551945
0.396471343855038
0.39442705953377
0.392017286112579
0.389283786818454
0.386265044945556
0.382996371029258
0.379509889079727
0.375834606217593
0.371996639415551
0.368019324127265
0.363923477847521
0.359727498817863
0.355447480872451
0.351097460540425
0.346689512597586
0.342233887109242
0.337739146014159
0.333212277726599
0.328658793894828
0.324082812995438
0.31948712131212
0.314873225444429
0.310241369201543
0.30559055475439
0.300918497029235
0.296221619340501
0.291494901700317
0.286731876875427
0.281924258801832
0.277062060736964
0.272132091892417
0.267124976179313
0.261997544141239
0.256667177837792
0.251126321856533
0.245375516844549
0.239375843961089
0.233067005648369
0.226354675500632
0.219117719748093
0.211187589856894
0.201987745639064
0.192917575289678
0.188515313940857
0.190472239080142
0.199203124513217
0.214176630314879
0.234784036406148
0.260967206368397
0.292638255255532
0.329414434993729
0.37061496150269
0.415676808710302
0.463936596481356
0.515201396365589
0.569882933213268
0.629250990833256
0.6952496761555
0.770230236121434
0.85660244776639
0.954243934331582
1.05986776280912
1.16716202370302
1.26580192258418
1.35029124751611
1.43257156574428
1.53807429165936
1.63587185739162
1.75699738324165
1.83995745817139
1.53103285391382
1.4511864958452
1.38788620133601
1.55913837710661
1.36022092292433
0.631351254063139
0.259956210583285
0.177848708833812
0.144170266599654
0.119848230410009
0.101663558613792
0.089836690545061
0.0836209377409822
0.0820703364427492
0.0841073602855218
0.0883156678061465
0.0933794309759526
0.0984729094817052
0.103383048228491
0.108147696525237
0.113077154776042
0.118682472045653
0.125541761667306
0.134204991879892
0.145363194435124
0.159796985235081
0.17791772249006
0.19890303930946
0.219818749499582
0.238470325081522
0.255195628935163
0.270323647870926
0.283875954899988
0.296031283505048
0.306997415593582
0.316867815335594
0.325656809444568
0.333406483621269
0.340155391698947
0.345945291601505
0.350820727389301
0.354829221478327
0.358020676595932
0.360446798502445
0.362160306453066
0.363214205033478
0.363661061237916
0.3635523822768
0.362938074154245
0.361866009747076
0.360381693690471
0.35852802483004
0.356345132980297
0.353870298776881
0.351137940437577
0.348179702876973
0.345024369513543
0.341698034079266
0.33822425061532
0.334624114396159
0.330916495114894
0.327118139178176
0.32324376760219
0.319306287046297
0.315316885539749
0.311285153065527
0.307219203320221
0.303125779716133
0.2990103467692
0.294877170885444
0.290729383317926
0.286569036913439
0.282397135642203
0.278213668861035
0.2740175954015
0.269806862911964
0.265578317039992
0.261327731062836
0.257049561160097
0.252737088996443
0.248381351435985
0.24397586278598
0.239495093373977
0.234885422758912
0.230127202529082
0.225224944681305
0.220159184489549
0.214897827794539
0.209385063754134
0.203557350244666
0.197306650807408
0.190376669799503
0.183267435596959
0.178746593846774
0.179178903838556
0.185378056602212
0.197113541480517
0.213874345051514
0.235455900732552
0.26163277041092
0.292081544636504
0.326266087366206
0.363703792637554
0.403861937055054
0.446737713529786
0.492667541060898
0.542477754467031
0.597517162936202
0.659464853039049
0.72977828487251
0.807633132462518
0.890691345519909
0.974757015155724
1.05264241632422
1.12081486257801
1.18910548741622
1.282541608629
1.37797985610546
1.48078455821577
1.54202752802032
1.32364954184116
1.26755764904528
1.2210765833417
1.40590988589988
1.41572601650682
0.786643289620304
0.293592779206643
0.174251658111417
0.137417021524403
0.114131618771155
0.0971114650870336
0.0861141165620184
0.0803081647151293
0.0787721850184988
0.0804379206702421
0.0839932403796998
0.0882856984395963
0.0926666342842695
0.0969952036541684
0.101357261778151
0.106070567760961
0.111593345621601
0.118411665086783
0.127014962953616
0.138005786604315
0.151980184764349
0.169103299931986
0.18834547522225
0.206904242098516
0.223356303995093
0.238280616632161
0.251838575142988
0.264043072758408
0.275051463399271
0.285001044840477
0.293955099094849
0.30193023821841
0.308962190785901
0.31508467218183
0.320334723373719
0.324752126936696
0.328379581516323
0.331262086760217
0.33344640107941
0.334980296476584
0.335911880411723
0.336288923063441
0.336158279862859
0.335565389230132
0.334553871493119
0.333165218058875
0.33143857117301
0.329410571377427
0.327115281649585
0.324584206879758
0.321846284475335
0.318927877159106
0.315852928928472
0.312643083266732
0.309317756803897
0.305894345095598
0.302388326993804
0.298813357384948
0.295181450069167
0.291503074420876
0.287787266477782
0.284041740661706
0.280272989839845
0.276486373198969
0.272686195197461
0.268875770208965
0.265057482176036
0.261232823453947
0.257402437895096
0.253566126731288
0.249722883462368
0.245870848029107
0.242007357184899
0.238128794346903
0.234230740479085
0.230307243103129
0.226354036646073
0.222355847864617
0.21827804004771
0.214100814369737
0.209828415899641
0.205453666155741
0.200963268564369
0.196328724334031
0.191524359465977
0.18648660478956
0.181156225887008
0.175581198449041
0.171361933160086
0.170941593735416
0.175413926481548
0.184802342507898
0.198722342764318
0.216912251196461
0.239073870905599
0.264904370069438
0.293961738313619
0.325824210073709
0.360050764142667
0.39672394736531
0.436157397382749
0.478938107183548
0.526047389294215
0.578739850690968
0.637937936398642
0.702555535467342
0.770790938416559
0.839750678198796
0.904236919958571
0.961681448727299
1.0198132468801
1.10057380293153
1.18918584345607
1.28105422523385
1.33107731383531
1.16752009854479
1.12600625673929
1.091178087416
1.2594754046308
1.4158378960776
0.93208849450479
0.349144350425751
0.177797823222123
0.133625943575666
0.11032490700186
0.0939993788386568
0.0835433132438346
0.0779911201171181
0.0764037082243366
0.077725914515584
0.080743986401462
0.0844377177092815
0.0882798044507144
0.0921801704015865
0.0962536625382398
0.100811943506761
0.106267640931551
0.113041317283877
0.121566158037101
0.132353433002851
0.145840975756516
0.162010157060974
0.179743848422873
0.196508350745706
0.211375611946933
0.224980246056274
0.237383168707612
0.248593769015487
0.258743363170207
0.267925449538849
0.276186467150512
0.283543806079181
0.290028605716073
0.295671121715147
0.300504999071959
0.304566621483644
0.307895255240859
0.310532425400564
0.312521389349288
0.313906420019488
0.314732157523091
0.315042969065664
0.314882400262492
0.314292699273221
0.31331443677589
0.311986212542661
0.310344448164491
0.308423243091668
0.306254312215989
0.303867006486414
0.301288244840421
0.298542593007704
0.295652376942935
0.292637789982777
0.28951696711118
0.286306168588932
0.283019885881845
0.279670934382665
0.276270615458315
0.272828814206915
0.269354105091294
0.265853857016617
0.262334329396562
0.258800757862043
0.255257432220948
0.251707762725159
0.248154342103143
0.244598991631872
0.241042810840349
0.237486199927245
0.233928906056964
0.230370011479158
0.226807998853348
0.223240672290717
0.219665312963281
0.216078205350447
0.212476877928482
0.208852477024758
0.205183050045785
0.201452682893143
0.197665295473343
0.193821676033461
0.189921488552621
0.185956023815841
0.181925502711944
0.177800020213258
0.17364093231369
0.169276700245162
0.165537148258393
0.164683925718584
0.167964364884645
0.175606237452807
0.187356703624293
0.202947836516125
0.222049028837183
0.244365645421675
0.269518656743504
0.297133098239543
0.326835880988569
0.358747917318322
0.393175444712726
0.430570393685036
0.471680032932053
0.517477143209891
0.568561607419616
0.623777556473411
0.681666238872434
0.740159871136902
0.795342135701756
0.845121072231435
0.895465040601194
0.964811676042524
1.04478950757671
1.12809702664853
1.17246682553538
1.04496581783144
1.01320533423097
0.987717063885391
1.12813657670507
1.3781912247173
1.05268552176297
0.428126931537095
0.18939062946068
0.132827874568983
0.108285777383367
0.0921848876275329
0.0819908320087929
0.0765305487780359
0.0748133332358404
0.0757902337646708
0.0783328926629041
0.0815271326792681
0.0849312487515254
0.0884909315118236
0.0923373063316413
0.0967690515026843
0.102159425035737
0.108878026617668
0.117304384130347
0.127862441125194
0.140858493432998
0.156143415384138
0.172592620286585
0.187972620393148
0.201667584218456
0.214282446236161
0.225817639965273
0.236278903061868
0.245773532474347
0.254366849970928
0.26209514789445
0.268975770642551
0.275036440070922
0.280304856443688
0.284812167904527
0.28859229679636
0.291682044226475
0.294120458385274
0.295948310029244
0.297207391340805
0.297939882970428
0.298187733730961
0.297992129414554
0.297393034082887
0.296428824072068
0.295136006905266
0.293549023835297
0.291700112584134
0.289619273064211
0.28733422684
0.284870396952802
0.282250996039043
0.279497120822887
0.276627853722992
0.273660341040844
0.270609959714478
0.267490424820906
0.264313884629499
0.261091067746895
0.257831382114405
0.254543017721126
0.251233047499591
0.247907520880945
0.24457154836024
0.241229379161515
0.237884469168015
0.234539545139853
0.231196656645367
0.2278572311363
0.224522109281218
0.221191600310414
0.217865496277705
0.214543149347084
0.211223447150639
0.207904973358397
0.204585726730491
0.201264721805154
0.197937375787482
0.194590462259787
0.191212878154117
0.187808993391338
0.184385010134474
0.180949749693575
0.177509039937811
0.174081236164696
0.170662412084215
0.167385799467617
0.163983530996693
0.160781449628529
0.159761413224096
0.162221229625708
0.168542383272316
0.178596150350627
0.192137475471802
0.208829622221196
0.228384034520991
0.250465510308548
0.274735790596678
0.300874081337601
0.329017052242875
0.359466737097194
0.392595902208872
0.428998670399164
0.46945332458617
0.514355817935764
0.562572108518092
0.612888772656987
0.663775456945171
0.712148448409755
0.756124918965542
0.800246806540688
0.859797580122672
0.930834503244312
1.00634988107762
1.04744874041699
0.945415698354352
0.920687360051491
0.903111515800191
1.0138443485695
1.31620234889393
1.14088186407924
0.52776222615401
0.210478389641038
0.135158895192
0.107854292330174
0.091489900334927
0.0812968887327987
0.0757766020804748
0.0738537248756436
0.0744729351812422
0.0765754681886579
0.0793315291034669
0.0823606539097771
0.0856331466891282
0.0892876066919795
0.0936062094661722
0.0989277200285253
0.1055794252838
0.113889944921817
0.12420331273547
0.136719321931683
0.15120129030166
0.16656610248414
0.180867497043311
0.193680735603381
0.205543455933844
0.216419401292438
0.226309581662878
0.235300686325171
0.243439286878409
0.250755073603301
0.257264901723316
0.262993887636432
0.267967811484913
0.272215978050563
0.275770536103749
0.278666537071124
0.280941292598007
0.28263384127694
0.283784252673123
0.284432999029454
0.284620344908129
0.284385825168967
0.283767796497324
0.282803080235844
0.281526689847691
0.279971641010513
0.278168826171132
0.276146987348675
0.273932630050306
0.271550070588823
0.269021503621315
0.266367092232951
0.263605067013095
0.260751809652719
0.25782200743862
0.254828762634943
0.251783691005649
0.248697058697283
0.24557788271878
0.242434032443143
0.239272328153917
0.236098633261845
0.232917938534637
0.229734440046781
0.226551608864072
0.223372257402934
0.220198596295302
0.217032294071102
0.213874522844011
0.210726021220934
0.207587129077145
0.204457875027166
0.201337993788663
0.198227092826279
0.195124515421982
0.192030522919065
0.188943521363359
0.185856442099083
0.182762804608503
0.179668078579776
0.176582362233172
0.173521069779923
0.170500782583145
0.167552697733584
0.16469310630989
0.162095628822927
0.159461630615971
0.156794312678981
0.155775663932089
0.157679721808861
0.162993966149694
0.17169917220763
0.183588918780074
0.198337707873699
0.215664895186221
0.235267319989652
0.256836170774729
0.280092112597502
0.305176306249632
0.332386056898884
0.362046222638946
0.394648481040594
0.430832862363679
0.470863091672635
0.513673691652541
0.558242917209903
0.603394501955938
0.646581165063099
0.68597105795305
0.724952845605269
0.776191677913754
0.838706878413607
0.906834737567232
0.945499395151613
0.862375779023524
0.842995909495714
0.832118067384142
0.916019223628198
1.23902190109298
1.1951755090753
0.64049480040025
0.243171047470303
0.141049168270937
0.108986867985179
0.0918006693241786
0.0813501790597211
0.0756231552509612
0.0734200671837498
0.0736623391567414
0.0753434027485384
0.0776994463475362
0.080393631275825
0.0834121921154452
0.0868948888351512
0.0911056078503726
0.0963523433172722
0.102925721272525
0.111106765552667
0.121168573685468
0.133226779321936
0.146990305617913
0.16144475662737
0.174901286550939
0.187046039385255
0.198334937035838
0.208709098886618
0.218163844491218
0.226768481402422
0.234556636872956
0.241553345622322
0.24777473823
0.25324390791566
0.257985186150519
0.262026535337547
0.265398862951288
0.268136028562386
0.270274185547416
0.271851230269814
0.272906102331347
0.273478152460509
0.273606534289902
0.27332968507905
0.272684882139411
0.271707890528347
0.270432696193266
0.268891321950055
0.267113725331951
0.265127726557865
0.26295895874917
0.260630928428919
0.258165074874602
0.255580859679662
0.252895865627157
0.25012588641064
0.24728507274692
0.24438604411354
0.241439991355838
0.238456806921769
0.235445187166817
0.232412733878309
0.229366051878236
0.226310840856813
0.22325197993067
0.220193606367339
0.217139187143571
0.214091587475133
0.211053131977046
0.208025668454792
0.205010622084719
0.202009064871974
0.199021766799844
0.196049292271713
0.193092050371208
0.190150468587167
0.187224963457437
0.184316849561665
0.18142671352958
0.17855192895907
0.175690080642772
0.172848117731071
0.170039095882458
0.167283243641401
0.164605104399409
0.162044966508445
0.15963483505072
0.157568261649519
0.155550217289567
0.153385205742618
0.152471915645747
0.154012013807961
0.158557026695695
0.166179022716601
0.176717286524775
0.189868820737918
0.205363974420701
0.222924394587014
0.242265498590039
0.263141626165512
0.285692828434271
0.310210384024892
0.336989376561928
0.366451742627423
0.399137084245842
0.435223444461417
0.473739115435793
0.513821035587377
0.554523387347622
0.593632028539773
0.629267584706051
0.663881220611273
0.708050835345721
0.762759336581872
0.823894402397645
0.860313613598446
0.791690744636582
0.776519067774545
0.771161532032174
0.833097186149377
1.15284388442778
1.21785228301825
0.754903401530451
0.290206907015911
0.151298814842179
0.111784905693982
0.0930791579807706
0.0820925349410582
0.0760080096237399
0.0734467898262805
0.0732855656754065
0.0745510926810872
0.0765291056161359
0.0789128153701941
0.081697309716167
0.0850187820482091
0.0891219239283953
0.0942867995948928
0.100771454181479
0.108813133809841
0.118623395887616
0.130252950348658
0.143381080150396
0.157075070736163
0.169869299957303
0.181507676245887
0.192361279194677
0.202356768972662
0.211483087338741
0.219794784522574
0.227316154046241
0.23406866348939
0.240067594120886
0.245334444601923
0.249892463959201
0.253768674163728
0.256993172999207
0.25959908360329
0.261621873793892
0.26309877993964
0.264068095510812
0.264568528106676
0.264638586921738
0.264316061091954
0.263637576776314
0.262638246621107
0.261351406384941
0.259808441356402
0.258038690409567
0.256069335687586
0.253925413131541
0.251629857591202
0.249203564842965
0.246665482450662
0.244032710313323
0.241320596922225
0.238542880320994
0.235711802785173
0.232838217922903
0.229931717097527
0.227000733979239
0.224052647044748
0.221093877348046
0.218129980771605
0.215165733478069
0.212205211833717
0.209251865977544
0.206308590587342
0.203377789891997
0.200461445230105
0.197561176353942
0.194678316690323
0.191813977767496
0.188969153696345
0.186144797487088
0.183342002471937
0.180562053417958
0.17780715770089
0.175079547237104
0.172379862303643
0.169709118352159
0.167075895653228
0.164495589485232
0.161991976348989
0.159595463507265
0.157352695385104
0.155307764654402
0.153660909304476
0.152137937781122
0.150429304124317
0.149682302968773
0.150998132828543
0.154957225680039
0.161703621896883
0.171123586613163
0.182943460088696
0.196907692685184
0.212758318956396
0.230231226233361
0.249108696146767
0.269527059605791
0.291770493938735
0.316115195830123
0.342934989909101
0.372695535735957
0.405521557918043
0.440549341035675
0.477050822544732
0.514221814640446
0.55003680769094
0.58250588868028
0.613313689469861
0.651425168973209
0.69912334547815
0.753717116699919
0.787854677614477
0.730583218612138
0.718788144842257
0.717809549523818
0.76312112861908
1.0626202382843
1.21335275216302
0.861138279836512
0.353972476214551
0.167151946042505
0.116514863747633
0.0953623004828509
0.0835131380829156
0.0769056451349461
0.0738995496355914
0.0732991357964206
0.0741437237182119
0.0757530060799181
0.0778390099416091
0.0803995972054332
0.0835636443791673
0.0875561562442029
0.092631453020856
0.0990182189862473
0.106914055058214
0.116478121451871
0.127712312709123
0.140284196721669
0.153346671519062
0.165624197080901
0.176883333500212
0.187412545946658
0.197128578364329
0.206013530896099
0.214109179982043
0.221432721961585
0.228002660032247
0.2338333570217
0.238945039189114
0.243360169117684
0.247105164199818
0.25020967758317
0.252706483673713
0.254630767461908
0.256019515783485
0.256910786877335
0.257343050410066
0.257354565114495
0.256982850539009
0.25626424133541
0.25523353603441
0.253923735404757
0.252365890994653
0.250588965260177
0.2486197581811
0.246482929891547
0.244201040784312
0.24179461849264
0.23928225161196
0.23668069350559
0.23400496543612
0.231268495073475
0.22848323477562
0.225659773535429
0.222807461847192
0.219934518983323
0.217048137252247
0.214154580844832
0.211259279191862
0.208366913805238
0.205481499777049
0.202606461508444
0.199744705798183
0.196898690400108
0.19407049510718
0.191261889152129
0.188474411693625