/*--------------------------------*- C++ -*----------------------------------*\
  =========                 |
  \\      /  F ield         | OpenFOAM: The Open Source CFD Toolbox
   \\    /   O peration     | Website:  https://openfoam.org
    \\  /    A nd           | Version:  7
     \\/     M anipulation  |
\*---------------------------------------------------------------------------*/
FoamFile
{
    version     2.0;
    format      ascii;
    class       volScalarField;
    location    "7000";
    object      kDeficit;
}
// * * * * * * * * * * * * * * * * * * * * * * * * * * * * * * * * * * * * * //

dimensions      [0 2 -3 0 0 0 0];

internalField   nonuniform List<scalar> 
15600
(
0.0271988238548707
0.0247933114377533
0.0145937476154132
0.00611525930927566
0.00172971869094235
0.00126623564812822
0.00133790132289071
0.000993096632856407
0.000740467406760618
0.000597737942033834
0.000501648314041122
0.000446693917497453
0.00042744433218967
0.000438622849541461
0.000481378762178532
0.000555870919917373
0.000661438428338557
0.000789527815778318
0.00093884232141401
0.00110633967148447
0.00128409717067583
0.00146266885770107
0.00165369297292616
0.0018650960042755
0.00208841903505796
0.00232281090830065
0.002567924019987
0.0028295373945154
0.00354524805638886
0.00452032877872199
0.00535323853875551
0.0060814553791667
0.00674675714062344
0.0073574696909053
0.0079099619622387
0.00839895497619373
0.00883336895091245
0.00921355526255153
0.00954084401894727
0.00981682826518473
0.0100435750013201
0.0102235788952872
0.0103597281425823
0.0104551866018346
0.0105133081580363
0.0105375261315154
0.0105312729628646
0.0104979012647471
0.0104406284903869
0.0103624915657367
0.0102663188127861
0.0101547102882757
0.0100300303089983
0.00989440617378344
0.00974973460239437
0.00959769039961056
0.0094397430145123
0.00927716188827791
0.00911101755349605
0.00894225737975046
0.00877165141245038
0.00859983772297706
0.00842736450056602
0.00825464441554873
0.0080819921448937
0.00790964006932043
0.0077377422374515
0.00756638152140454
0.00739557533081511
0.0072252794664412
0.00705539225995328
0.00688575439045381
0.00671615207995392
0.00654631080491392
0.00637589998524381
0.00620451495914213
0.00603169006650495
0.00585685477331588
0.0056793733108405
0.00549844326792874
0.0053132848287441
0.00512176852401762
0.00492497424602772
0.00472334527452276
0.00451451659009638
0.00429444143620081
0.0040606283655068
0.00380739037567185
0.00353194710833022
0.0032258876246785
0.00287822965566831
0.00243966258258117
0.00217755207689774
0.00239136977209028
0.00268589547667942
0.00309090413900244
0.00355323312601818
0.00409582008978625
0.00475432693849399
0.0055633372484212
0.00643724210716174
0.00737647420124343
0.00835794515219157
0.00935246916248927
0.0101828204716694
0.0109793509570332
0.011841979273639
0.0128267903800431
0.0140500890443684
0.0157978876237996
0.0185480495423865
0.0219760429475278
0.0262880722411916
0.0322522708703051
0.0395488485022974
0.0445625531708482
0.037100047969855
0.0287820823137766
0.0234303479208385
0.0255638731992022
0.0986459706683285
0.0904807961949911
0.0608090654802666
0.0259239000368956
0.00685242442601149
0.00462624208475387
0.0048746283407563
0.00365151682319494
0.00272242789023365
0.00219316164389582
0.00183766419284033
0.00163413197658349
0.00156093510762552
0.00160052338606804
0.0017574135138903
0.00203220493106322
0.00241997736497677
0.00289032897566565
0.00343458142127333
0.00403412877235959
0.00465425350492695
0.00526870482622417
0.00591040448411554
0.00659057986437677
0.00729064027134083
0.00802784204195197
0.00888663907369629
0.0102486535282475
0.0126904134090468
0.01528027805896
0.0173586009100595
0.0191355689034281
0.0207199217174201
0.0221502285282912
0.0234339963848611
0.0245592071661798
0.0255383467431256
0.0263794289643645
0.0270912688178884
0.0276820569327385
0.0281600107243088
0.0285333721980505
0.0288104480748177
0.0289994950187754
0.029108648631526
0.0291458090034387
0.0291185643629688
0.0290341121260334
0.0288992087649895
0.0287201302964992
0.0285026534992824
0.0282520461400872
0.0279730719605614
0.0276700029563471
0.0273466406977419
0.0270063405208997
0.0266520443310148
0.0262862970818112
0.0259112395067793
0.0255287622751015
0.0251404260615799
0.0247474979872005
0.0243510432400627
0.0239518712675065
0.0235505803598282
0.0231475869401278
0.0227431350386723
0.0223373076679064
0.0219300355343703
0.0215211019082353
0.0211101468151686
0.0206966633380523
0.020279997484491
0.0198593316293066
0.0194336825874417
0.0190018614198633
0.0185624784539898
0.0181138534994024
0.0176540527102621
0.017180690565452
0.0166912238304421
0.0161818184858152
0.0156591934124265
0.0151218016966459
0.014559403481507
0.0139612934891182
0.0133177648699476
0.0126143449230487
0.011836195489297
0.010962476197237
0.00995013484008049
0.00865389360314206
0.00770401850876714
0.00807473268958135
0.00898032680929804
0.0102526764556667
0.011748717951713
0.0135305054398167
0.0157096251248409
0.0183832461039653
0.0213309612202274
0.0245322171360292
0.027925237864186
0.0314157153380984
0.0345197483303746
0.0375574700194617
0.0408451422170778
0.0445909420315067
0.0491829305953598
0.0555575778438217
0.0652328162688084
0.0773330677207854
0.0923598243651391
0.112145178229019
0.135386153434791
0.153192967153351
0.144786407252645
0.1234265944934
0.100755857631325
0.0976185590285975
0.138410015014413
0.123305610796255
0.0967072861228693
0.0535545832941691
0.0144112594060305
0.00835078058587493
0.0085535830655376
0.00658588428513164
0.00498188583803107
0.00402219078325172
0.00337121605285236
0.00298746504122759
0.0028382200176468
0.00288976968162208
0.00314271625477606
0.00358354329746992
0.00418046417147923
0.00485777996567908
0.00557162689477361
0.00627042217497163
0.0069028182007837
0.00745223696674608
0.00798017216136922
0.00853256205509689
0.00913409110518667
0.00985423881002648
0.0108115130791811
0.0121015966438238
0.0140224790923312
0.0160144935089207
0.017664610954176
0.0191051156411149
0.0203844236437644
0.0215060946326517
0.0224679050766683
0.0233266440132655
0.0240825200211847
0.0247413850784829
0.0253085837378285
0.0257891547247077
0.0261881828656819
0.0265108168982356
0.0267622956510251
0.0269478965809593
0.0270728878074802
0.0271424629152196
0.0271616855444102
0.0271354362947644
0.0270683712002659
0.0269648885188237
0.0268291060029959
0.0266648456245914
0.0264756265607382
0.0262646647316509
0.026034877748655
0.0257888942772116
0.0255290649914574
0.0252574764678667
0.0249759507343303
0.0246860939159103
0.02438929903969
0.0240867487263749
0.0237794467165097
0.023468222449666
0.02315374204427
0.0228365236877447
0.0225169471216703
0.0221952612047042
0.0218715897513939
0.0215459353840678
0.0212181814792176
0.0208880912370867
0.0205553047159694
0.0202193314734534
0.0198795412299736
0.0195351468404279
0.0191851861270107
0.0188284889542592
0.0184636449227096
0.0180889444336311
0.0177023309279237
0.0173019963973645
0.016875729295462
0.0164264011232352
0.0159540260602732
0.0154511259043252
0.0149089361118331
0.0143147136702206
0.013653656157107
0.0129007303614958
0.0120300805372003
0.0109000357068229
0.0100282786802097
0.0102332933130582
0.0109570439769629
0.0121400714945331
0.013679886764667
0.015591772261862
0.0179626081892729
0.0208568544448298
0.0241621691687286
0.0278166551656242
0.0317731594950286
0.0359521793646286
0.040116064902355
0.0444264557699429
0.0491687935209515
0.0546095611392946
0.0611114053861312
0.0693954563243497
0.0803963580383235
0.093419899358613
0.107956460125158
0.123428446110487
0.137935503579041
0.148086014501655
0.148360362111601
0.148071398298391
0.147880442125126
0.148182021960872
0.119417884844772
0.106692633332791
0.0932202780203321
0.0712609838707138
0.0268067389047553
0.0116119311341255
0.0104236824728357
0.00836919212398289
0.00654721154895044
0.00533320830241269
0.0044774783893212
0.00394768513925694
0.00370962253535949
0.00371512432203548
0.00394068365233526
0.00433588112843781
0.00482985432745391
0.00533354158791903
0.00580870940306786
0.00623099922290333
0.00659307564562945
0.00691751448286261
0.00726404700751768
0.0076740679955005
0.00818121183768672
0.00884802419644108
0.00974734884717993
0.0109055044875147
0.012388496115853
0.0138613299151784
0.0151093419676319
0.0162107623393227
0.0171867665327162
0.0180315812122342
0.0187758578011247
0.0194443475776765
0.0200364857889654
0.0205561214060603
0.0210066129059706
0.0213913083879164
0.0217136723035479
0.0219772924380449
0.0221858723683274
0.0223431920077199
0.0224530625030617
0.0225192769249151
0.0225455642467936
0.0225355479809799
0.0224927115959832
0.0224203710442601
0.0223216543383346
0.0221994873950425
0.0220565855233587
0.0218954503556469
0.0217183706088636
0.0215274266967062
0.0213244987279869
0.0211112714141891
0.0208892386737374
0.0206597254706814
0.0204238991954245
0.0201827733635324
0.0199372200230283
0.0196879827053557
0.0194356816788189
0.0191808236214456
0.0189238097111172
0.0186649418789142
0.0184044278294027
0.0181423849441711
0.0178788425675892
0.0176137431716571
0.0173469410943452
0.0170782004433708
0.0168071887448198
0.0165334709522494
0.0162564946324628
0.0159755797866769
0.0156898871537327
0.0153984073862315
0.0150998611941485
0.0147933337139053
0.0144726180833005
0.0141312371925462
0.0137732450139846
0.0133957246181109
0.0129932130397143
0.0125580321502977
0.0120801665996519
0.0115437357780306
0.0109326234428542
0.0101615761505487
0.00951463381428136
0.0094927341849464
0.00988574618836092
0.0106826518995453
0.0118221128569719
0.0132857906325685
0.015111489080983
0.017326097712454
0.0198839749923851
0.0227324435170376
0.0258359524911244
0.0291422811599111
0.0325714626316054
0.0361851426841471
0.0401482875632959
0.0446554844938012
0.0499415632883562
0.0563635351274758
0.0642181237921084
0.0731100578260887
0.0824225973179788
0.0912449324567504
0.0986926709251058
0.104708885264816
0.108502735702489
0.112066924848245
0.120245498573154
0.125650782812144
0.0958143040537344
0.0875094380563229
0.08068299102671
0.0759893865186339
0.0414854360179315
0.0153787386868746
0.0105669792998825
0.00853921754932271
0.0068934605492615
0.00567395175696605
0.00477423397064494
0.00419543498225881
0.00390568830021867
0.00385590281826378
0.00400593117993601
0.00429117601771878
0.00463865205005971
0.00498308154867017
0.00530279661956987
0.00558980148396762
0.00585160771365405
0.0061147755074504
0.00642109768456359
0.00680224413657034
0.00729270728990788
0.00794465020835541
0.0088063374218305
0.00987985477739395
0.0110996736034253
0.012244393854128
0.0132360294162079
0.0141206632017721
0.0149057168975158
0.0155950190681496
0.0162105990085568
0.0167643962940283
0.0172564099761097
0.0176894540172807
0.0180659851728445
0.0183885495549023
0.0186598191478118
0.0188825990953169
0.0190598082230744
0.0191944469401666
0.0192895567000565
0.0193481797176943
0.019373319892288
0.0193679085847475
0.0193347752618522
0.0192766241643353
0.0191960164585398
0.0190953577006052
0.0189768896633831
0.0188426867382156
0.018694655380919
0.0185345375781433
0.0183639170092186
0.0181842172438457
0.0179967134445481
0.0178025413239379
0.0176027095301705
0.0173981036191175
0.017189492962201
0.0169775430812719
0.0167628199164188
0.0165457969946401
0.0163268622297125
0.0161063233844726
0.0158844125767718
0.0156612900333632
0.01543704659076
0.0152117056215734
0.0149852229770897
0.0147574869252238
0.0145283143868535
0.0142974489308231
0.0140645506648286
0.0138291932099
0.0135908404863189
0.0133488482847027
0.0131023782443218
0.0128508466317339
0.0125909729755054
0.0123174880198084
0.0120315472351355
0.0117325247249127
0.0114173256242655
0.0110814446805318
0.0107184230937565
0.0103190726046987
0.0098724870224523
0.00933124472691346
0.00883192810314607
0.00868695293170749
0.00888439681251186
0.00942399141539077
0.0102672955795713
0.011387380155685
0.0127950994786494
0.0144974138551679
0.0164705178946788
0.0186755167809811
0.0210835368412548
0.0236573775734943
0.0263693246084612
0.0292475278780077
0.0323836239054676
0.0359037569066286
0.039957626481758
0.0447289687702014
0.0502915562364204
0.0564228739744968
0.0627036246626676
0.0684797815664711
0.0733287238390227
0.0777653333557035
0.0824983847667907
0.0865151112000614
0.093237055151386
0.0982124254413433
0.0782083737217
0.0729933136385347
0.0689757342047072
0.0730021511724856
0.0527483938330913
0.0206829507265252
0.0105583810952655
0.00806241086788014
0.00658768813208292
0.00545949349047258
0.00461201277652244
0.00405999276400584
0.00377289897500792
0.00370666035227973
0.00381583434200242
0.00403572664796892
0.00430141420839058
0.00456581562231241
0.00481516833632511
0.00504771763986298
0.005275302085371
0.00552241009937363
0.00582009177294953
0.00619512770259454
0.00668038455359768
0.00731835618740698
0.00814027614088091
0.00912641107844323
0.0101612387539574
0.0110995589811899
0.0119282761441593
0.0126735179892632
0.0133378050063904
0.013928466812628
0.014459503468697
0.0149374583408002
0.0153627334654835
0.0157375338475521
0.0160638241142841
0.0163436935387252
0.0165793546220576
0.0167731513223105
0.016927535106931
0.0170450374125871
0.0171282329175214
0.0171797047777285
0.0172020103179
0.0171976513372562
0.0171690483619473
0.0171185201407337
0.0170482677857666
0.0169603635599521
0.0168567433028409
0.0167392028331935
0.0166093969326589
0.0164688439542581
0.0163189252304282
0.0161608880673565
0.0159958554948687
0.0158248309374724
0.0156487095474434
0.0154682824491681
0.0152842416775154
0.0150971908032383
0.0149076490416962
0.0147160571456974
0.0145227832786088
0.0143281279422438
0.0141323281374776
0.0139355609588038
0.0137379462164212
0.0135395486941104
0.0133403788756663
0.0131403938544388
0.0129394953722571
0.0127375296316415
0.0125342807731136
0.0123294707056434
0.0121227431284788
0.0119136686116895
0.0117016799513739
0.0114863739757104
0.0112658943980733
0.011036688647025
0.0107984318398309
0.0105511472243156
0.0102931612903268
0.0100218812428799
0.00973325104652718
0.00942206194916801
0.00908106636384646
0.00868547306247974
0.00829545573745617
0.00810615849945685
0.00819030628044612
0.00856573435406834
0.0092095951035398
0.0100957135654644
0.0112215898738411
0.0125834449759879
0.0141648207047304
0.0159364433446157
0.017874102774543
0.0199492736486983
0.0221536600437203
0.0245049661281705
0.02705779260583
0.0298957360746865
0.0331199001532217
0.0368339052539548
0.041032489176258
0.0455743138007923
0.0501879670192297
0.0544294826711198
0.0580625236431928
0.0616005773270041
0.0661371945413523
0.0703424898678395
0.0755508874793912
0.0791181707013697
0.0658344127182941
0.0624010193213434
0.0596791066574484
0.0670429502155843
0.0584894996857464
0.027148103924715
0.0111781170550812
0.00764749447985393
0.00619932146378511
0.0051534739076304
0.00437153302039307
0.00386297769343762
0.00359570032286224
0.00352902446703822
0.00361661649227744
0.0037975737156643
0.00401531553196596
0.00423433510771332
0.00444547107382512
0.00465035095058518
0.00486231765536982
0.00510334629796306
0.00539829575169415
0.00577081465083535
0.00625061736071034
0.00687127036510846
0.00765046206707258
0.00855283069030677
0.00945220622848202
0.0102542239785055
0.010973412044212
0.0116239168584498
0.0122066660606995
0.0127293451907171
0.013200888870524
0.0136253160594305
0.0140032428061164
0.0143364787957146
0.0146266818430547
0.0148756475388647
0.01508529127774
0.0152576565235681
0.0153948890936251
0.0154992123356051
0.0155728931774818
0.0156182108164396
0.0156374256332304
0.0156327524379024
0.0156063371886325
0.0155602384191243
0.0154964128286903
0.0154167050676917
0.0153228407181528
0.0152164228474059
0.0150989314388158
0.0149717272237099
0.0148360478890824
0.0146930154654084
0.0145436427764588
0.0143888369190348
0.0142294092899404
0.0140660799846616
0.0138994820068942
0.0137301703429908
0.0135586260782092
0.0133852615818177
0.0132104257427695
0.0130344085277937
0.0128574449110756
0.0126797183480741
0.0125013634826708
0.0123224685872779
0.0121430768326147
0.0119631877610245
0.0117827566022645
0.0116016951052145
0.0114198676327197
0.0112370924357019
0.0110531311298842
0.0108676948268471
0.0106803981117474
0.0104909620997971
0.010298289015081
0.0101000731786332
0.00989546970875054
0.00968467262129613
0.00946684493305061
0.00924060659516519
0.00900355774142777
0.00875296606052063
0.00848418598471854
0.00818619680137861
0.00788049973066923
0.00768610353541127
0.00770469286505792
0.00797125643389509
0.00847588228366224
0.00919659683721508
0.0101246037314997
0.0112502091276696
0.0125595064193697
0.0140294417567468
0.0156392630834148
0.0173660632933673
0.0192097216817808
0.0211847042656186
0.0233265434420823
0.0256932380062567
0.0283569886806791
0.0313804662495179
0.0347282246958883
0.0382997278573561
0.0419145516516961
0.0452636239019416
0.0481950390908544
0.0511315359588974
0.0551492891710472
0.0592531338125348
0.0636737360032782
0.0663071837048736
0.0569169302991698
0.054504978908947
0.0525062930836933
0.0604541250936948
0.0608762187097931
0.0338256614536731
0.0126244895058857
0.00749282129879095
0.00590893192554932
0.00490765960715966
0.00417579299874245
0.00370290701216679
0.00345325108275056
0.00338720395579545
0.00345883058882041
0.00361170933632709
0.00379628503290264
0.00398466527422359
0.00417079375712924
0.0043583622564605
0.00456103441372131
0.00479851386172884
0.00509170159873168
0.00546164340700547
0.00593424882398554
0.00653514794486702
0.00727144189707541
0.00809885543455673
0.00889688241023617
0.009604321071789
0.0102460665151829
0.0108290587311485
0.0113538521286115
0.0118272129261687
0.0122550449281405
0.0126400692610785
0.0129830002433916
0.0132853742037937
0.0135486409038187
0.0137743931050699
0.0139643414582779
0.0141203220052019
0.0142442697306893
0.0143381952464146
0.0144041527484931
0.0144442108577041
0.014460423691728
0.014454806034103
0.0144293117368957
0.0143858164742041
0.0143261043765316
0.0142518585604394
0.0141646545692293
0.0140659571109321
0.0139571208958296
0.0138393902324394
0.0137138987178416
0.0135816759439243
0.0134436525804695
0.0133006635425676
0.0131534568391107
0.0130026980607336
0.0128489743675528
0.0126928023529742
0.0125346322000977
0.0123748524585446
0.0122137948484534
0.0120517385631134
0.0118889140475557
0.0117255063934908
0.0115616581189855
0.0113974717335696
0.0112330114085197
0.0110683048294891
0.0109033434494454
0.0107380839888818
0.0105724464652516
0.0104063163589506
0.0102395381569168
0.0100719218406007
0.00990321145343455
0.00973322357578114
0.00956130145817854
0.00938595572205152
0.0092063350178987
0.00902262188368458
0.00883450764469686
0.00864142054826785
0.00844213514636333
0.008235547457037
0.00801892400595108
0.00778971771314132
0.00754999153330875
0.00736856312588371
0.00735048853062288
0.00754279883870657
0.00794650072783963
0.00854506073886568
0.00932722680144784
0.0102801764489408
0.0113908879129858
0.0126403547474856
0.0140104410331695
0.0154821828581347
0.0170591297367083
0.0187547680874582
0.0205943386088926
0.0226200377396513
0.0248858135797116
0.0274313312651416
0.0302098880250957
0.033144010351912
0.0361092791625482
0.0388821875582185
0.0413523022952738
0.0438519696158444
0.0473246735260559
0.0511349912686111
0.0550853316850557
0.0572363244949185
0.0502033642374259
0.0484182690397893
0.046920657758888
0.0541574423991246
0.060881029531337
0.040079805263706
0.0150132070683073
0.00764530639855129
0.00574591557375363
0.00474397100107997
0.00404197329006224
0.00359236246948489
0.00335361816503608
0.00328535945364647
0.00334221432417011
0.00347199141526287
0.0036308218614991
0.00379603159138072
0.00396374732726822
0.00413890748914431
0.00433491357079073
0.00456950856005668
0.00486077664320671
0.00522734479559536
0.00569119761912258
0.00627116195753019
0.00696643675362186
0.00772898548218354
0.00844985908206537
0.00908915131371811
0.00967415058041978
0.0102074762544273
0.010689532067666
0.0111259646163189
0.0115207943301705
0.011876018087472
0.0121923836614048
0.0124712300457911
0.0127138582337513
0.0129217149600942
0.0130963647237967
0.0132394959753569
0.0133528942922243
0.0134384197420194
0.013497976060838
0.0135334827734929
0.0135468476698235
0.0135399432112872
0.0135145860687485
0.0134725207813633
0.0134154071393344
0.0133448112710731
0.0132621994529417
0.0131689354252875
0.0130662812789158
0.0129553945281381
0.0128373314993313
0.0127130522085462
0.0125834249692594
0.0124492295857807
0.0123111652493241
0.0121698550929193
0.0120258501784546
0.0118796364647075
0.0117316390108973
0.0115822265189256
0.0114317158517145
0.0112803761640522
0.0111284325880679
0.0109760695855008
0.0108234337971818
0.0106706367104351
0.0105177566401705
0.010364840866135
0.0102119065968715
0.0100589429604495
0.0099059104936038
0.00975274395069396
0.00959934890850083
0.00944560845742109
0.00929136283006921
0.00913650575092471
0.00898065651206459
0.00882287115196874
0.00866246536440514
0.00849960770535376
0.00833433206943884
0.0081666240077627
0.00799610902408117
0.00782279661661359
0.00764540086917011
0.00746656008948867
0.00727889811054198
0.00711809737511091
0.00708140880589909
0.00722246769003971
0.00755106821047071
0.00805633825584458
0.00872675697019338
0.00954810823999885
0.010507722753132
0.0115893022399707
0.0127767232243004
0.0140539428825085
0.0154261604446878
0.0169065441226472
0.0185145269284566
0.0202822414160783
0.0222515171580253
0.0244481491190435
0.0268224349283567
0.0293116482715146
0.0318268744588868
0.0341997118351755
0.0363402061059517
0.0385049967458514
0.0414869020698285
0.0449259488257985
0.0485081721458869
0.0504160734980213
0.0449335301667517
0.0435678293719318
0.0424718337470718
0.048509872798318
0.0592622226628441
0.0452654774358077
0.0184094580560951
0.00814379706680925
0.00571159860646628
0.0046562884274848
0.00396395016798391
0.00352560577637809
0.00329081359745554
0.00321697332914114
0.00325898005188084
0.00336831438450488
0.00350566670520853
0.00365204369631559
0.00380511005500842
0.00397050417226058
0.00416106921461543
0.00439285527653667
0.00468175514455973
0.00504408851760491
0.00549808496838336
0.00605691521761891
0.00671416686151793
0.00742148267232317
0.00808282267690535
0.00867170612139361
0.00921414518815493
0.00971015851850673
0.0101599928316603
0.0105682618963969
0.0109377745487499
0.0112700913594614
0.0115659581376297
0.0118265669230496
0.0120531088270786
0.0122469232198946
0.0124094687622435
0.0125423279017384
0.0126471797105668
0.0127257773312575
0.0127799178276546
0.0128114149677284
0.0128220725504313
0.0128136615648258
0.0127879004655641
0.0127464394350989
0.0126908482969264
0.0126226080249178
0.0125431048411178
0.0124536287417611
0.01235537175412
0.0122494270689705
0.0121367928296788
0.0120183761953841
0.0118949977100886
0.0117673946647563
0.0116362282677226
0.011502088267299
0.0113654970390685
0.0112269159131165
0.0110867494309194
0.0109453497620084
0.0108030210424824
0.0106600233978806
0.0105165765794903
0.0103728633039452
0.0102290321742246
0.0100852004410137
0.00994145623575079
0.00979786093886091
0.00965445069909238
0.00951123881334779
0.00936821633994133
0.0092253554219246
0.0090826082274775
0.00893991385441106
0.0087971862494111
0.00865438303762163
0.00851130715886172
0.00836738987717086
0.00822215376062701
0.00807578671582753
0.00792855543578237
0.00778083923682373
0.00763288871732588
0.00748549315508194
0.00733848371962125
0.00719758937710751
0.0070512918328578
0.00691360233402677
0.00686974076863614
0.00697551287390546
0.00724732248070959
0.00767963446507696
0.0082619114452875
0.00897967375551144
0.0098205134844026
0.0107700169432676
0.0118136389956572
0.0129375854975168
0.0141477332464436
0.0154570696951793
0.0168816237949815
0.0184469428271641
0.0201864929572053
0.0221173001712378
0.024190600666278
0.0263542172242505
0.0285423446486423
0.0306223832816195
0.0325133715155183
0.0344106126812496
0.0369712959452749
0.0400258836395054
0.0432730448863377
0.0450402958379305
0.0406528750292371
0.0395895564822141
0.0388337951794082
0.0435953069884885
0.0565967010024392
0.0490579201554075
0.0226937757246224
0.00905057075456462
0.00581183249325599
0.00463773457019747
0.00393406571440186
0.00349576621551034
0.00325839388946041
0.00317571016965268
0.00320233621279341
0.00329274513211229
0.00341125575144908
0.00354150811812042
0.00368222530763251
0.00383936708775512
0.0040250670070454
0.00425389196122659
0.00453991528720342
0.00489726763163812
0.00534074244762522
0.00587893084306236
0.00650165548297138
0.00716234240681801
0.00777730237286238
0.0083282716309454
0.0088383686051553
0.00930603425557483
0.00973131201150375
0.0101179295119823
0.0104678893357716
0.0107824681649419
0.0110623907741026
0.0113087371683666
0.0115226158938513
0.0117052870561742
0.0118581330524612
0.0119826610940583
0.0120804755817143
0.0121532551749084
0.0122027228649443
0.0122306189582665
0.0122386748310495
0.0122285904822656
0.0122020152493849
0.0121605324501413
0.0121056476634507
0.0120387805634521
0.0119612595253587
0.011874320455993
0.0117791030921632
0.0116766530353194
0.0115679246557166
0.0114537849660169
0.0113350178815631
0.0112123278150669
0.0110863463198607
0.0109576367933025
0.0108266987132429
0.0106939735239832
0.0105598489569075
0.0104246633950551
0.0102887101106184
0.0101522412302593
0.0100154713569894
0.00987858092201157
0.0097417191811551
0.00960500706832616
0.009468539640698
0.0093323886450574
0.00919660448229248
0.00906121891250016
0.00892624655031722
0.00879168862616812
0.00865753373291251
0.00852376499153002
0.00839035416314521
0.00825731248551977
0.00812457141862445
0.00799182701026058
0.00785880059816565
0.00772572737893035
0.00759304157602638
0.0074614060005367
0.00733153365107524
0.00720476600254409
0.00708180357132528
0.00697011203938586
0.00685685011648676
0.00674215544519618
0.00669835354907985
0.00678022803778101
0.00700874054443686
0.0073830644049281
0.00789432350754317
0.00852852143856906
0.00927359049300748
0.010116494759555
0.0110439553433133
0.0120439608416926
0.0131225811687342
0.014292600446652
0.0155679875734747
0.0169698846847455
0.0185258130816382
0.0202471129419233
0.0220879687410593
0.0240044454400258
0.0259459635841054
0.0278029900977133
0.0294967554919812
0.0311729723610265
0.0333762421502914
0.0360643957717851
0.038993893715391
0.0406564739915194
0.0370821584980116
0.0362488241083157
0.0357810768975181
0.0393888266160125
0.0532779417469979
0.0513925468902377
0.0275412764172107
0.010456355041223
0.00606511423565028
0.00468643532336272
0.00394742878093968
0.00349805769956801
0.00325179567579133
0.00315706288890124
0.00316748058373988
0.00323976631818715
0.00334107619294406
0.00345692614486048
0.00358672426096414
0.0037364802199115
0.00391754113756602
0.00414315076264271
0.00442580601471859
0.00477759091876467
0.00521024866847514
0.00572875151084326
0.00632058314157025
0.00694212453497691
0.00752075532169038
0.00804297969356596
0.00852840229254104
0.00897449125212458
0.00938104531312238
0.00975104470030416
0.0100859353855371
0.0103867938617598
0.01065431374389
0.0108894880403734
0.0110933630044723
0.0112671410195145
0.0114121511069054
0.0115298492281826
0.0116217899785389
0.011689602901602
0.0117349624002479
0.0117595605558019
0.0117650809744658
0.0117531764583992
0.0117254499319947
0.0116834392927189
0.0116286059363104
0.0115623268438524
0.0114858901892739
0.0114004922419882
0.0113072352262143
0.0112071299224435
0.0111010982196079
0.0109899769662255
0.0108745222219677
0.0107554131156575
0.0106332581281176
0.0105085998968822
0.010381919628301
0.0102536426976361
0.0101241430481731
0.00999374755676728
0.00986274023076416
0.00973136615684296
0.00959983513701882
0.00946832507379556
0.00933698504717356
0.00920593826143072
0.00907528467501299
0.00894510374355605
0.00881545674964291
0.00868638978949487
0.0085579359723933
0.00843011956768365
0.00830295816596193
0.0081764701492482
0.00805067342866979
0.00792562453115158
0.00780134868177196
0.00767773294524002
0.00755467346763919
0.00743246906243605
0.00731168112294568
0.00719317947658026
0.00707801948917461
0.00696793355986313
0.00686429790718097
0.00677543525092932
0.00668865934345137
0.00659556384693258
0.00655629237276711
0.00662251659374234
0.00681795214791488
0.00714569797681382
0.00759884332056531
0.0081643592917305
0.00883065090009015
0.0095857489672416
0.0104174164393717
0.011315089925117
0.0122847916226737
0.0133390465130703
0.0144905431921629
0.0157574249329792
0.0171628946225712
0.0187146081118409
0.0203707819637391
0.0220943045302572
0.0238445056559478
0.0255261772272102
0.0270585061423602
0.0285468924862847
0.030446185919866
0.0327986514730205
0.0354274593030987
0.0369934853847332
0.034042702019373
0.0333903199143054
0.0331599458773835
0.0358231790044232
0.0495722870303946
0.0523676481697846
0.0324608462658094
0.0124788970016842
0.00650584903821372
0.00480675094484124
0.00400240379317314
0.0035299790024655
0.00326834441382082
0.00315821196253006
0.00315127932404248
0.00320569698528675
0.00329075154149384
0.00339325106091835
0.00351298431779518
0.00365580762807299
0.003832242728921
0.00405433238258039
0.00433317252980358
0.00467896475382317
0.00510080602316749
0.00560087686499232
0.00616538644646703
0.00675422804165502
0.00730437989816401
0.00780483007857315
0.00827153500537109
0.00870134106582445
0.00909377275556586
0.00945117573447067
0.00977459462398835
0.0100649525300438
0.0103229065471981
0.0105493811178827
0.0107453759502457
0.0109120529890403
0.0110507064389659
0.0111627605949415
0.0112497405731374
0.0113132475374045
0.0113549281069649
0.011376446708587
0.0113794592376347
0.011365590626954
0.0113364158013815
0.0112934446047076
0.0112381104745525
0.0111717629783253
0.0110956636876114
0.0110109814345662
0.0109187927646563
0.0108200838764217
0.0107157532882475
0.0106066157453785
0.0104934065434729
0.0103767856676557
0.0102573438538027
0.0101356075197624
0.0100120433706848
0.00988706383519365
0.00976103156110729
0.00963426382292414
0.009507036725966
0.00937958917317901
0.00925212653955698
0.00912482410884981
0.00899783023703438
0.0088712693952557
0.00874524496535586
0.00861984214489451
0.00849513058321949
0.00837116761768387
0.00824800104400234
0.00812567360894284
0.0080042262919448
0.00788370610629328
0.0077641682969722
0.00764570778113827