/*--------------------------------*- C++ -*----------------------------------*\
  =========                 |
  \\      /  F ield         | OpenFOAM: The Open Source CFD Toolbox
   \\    /   O peration     | Website:  https://openfoam.org
    \\  /    A nd           | Version:  7
     \\/     M anipulation  |
\*---------------------------------------------------------------------------*/
FoamFile
{
    version     2.0;
    format      ascii;
    class       volScalarField;
    location    "7000";
    object      nut;
}
// * * * * * * * * * * * * * * * * * * * * * * * * * * * * * * * * * * * * * //

dimensions      [0 2 -1 0 0 0 0];

internalField   nonuniform List<scalar> 
15600
(
1.62226456046912e-07
1.48172494357561e-07
8.61843379533093e-08
3.36506410814958e-08
8.14244449157539e-09
5.30204517100515e-09
5.50020630357311e-09
4.36584335097525e-09
3.71158028196081e-09
3.59478958362087e-09
3.75433469774332e-09
4.14215456298949e-09
4.82277118250085e-09
5.92379860711503e-09
7.66783859027267e-09
1.03048363697576e-08
1.41827731116463e-08
1.97847383255659e-08
2.78187454180234e-08
3.91586288363067e-08
5.47364802991102e-08
7.53749564992247e-08
1.01819174965564e-07
1.34126941789601e-07
1.70644450626508e-07
2.08609731125105e-07
2.43791295514508e-07
2.71774103081928e-07
3.38327754647603e-07
4.31381040201367e-07
5.10866761059819e-07
5.8036149960661e-07
6.4385216876075e-07
7.0213332370595e-07
7.54858466766453e-07
8.01523784329661e-07
8.42980557595446e-07
8.79262316733228e-07
9.10495994884933e-07
9.36833617367764e-07
9.58472439473533e-07
9.75650529388068e-07
9.88643510161724e-07
9.97753311838198e-07
1.00329999904486e-06
1.00561121719474e-06
1.00501452790802e-06
1.00182987491755e-06
9.96364303685031e-07
9.88907631885155e-07
9.79729770002308e-07
9.69078844965841e-07
9.57180486900178e-07
9.44237707063134e-07
9.30431512356969e-07
9.15921732091646e-07
9.00848598278351e-07
8.85333256191657e-07
8.69477868493372e-07
8.53372844127599e-07
8.37091670321549e-07
8.20695239165375e-07
8.04235865209512e-07
7.8775293067094e-07
7.71276465833937e-07
7.54828647362392e-07
7.38424176585472e-07
7.2207096234456e-07
7.05770666294942e-07
6.89519070660317e-07
6.73306473301106e-07
6.57117670207075e-07
6.40932260449119e-07
6.24724046066183e-07
6.0846147954676e-07
5.92105943666157e-07
5.756130000595e-07
5.58928202110809e-07
5.4199087779426e-07
5.24724452157069e-07
5.07054506321801e-07
4.88777826869101e-07
4.69997454802634e-07
4.50755705826309e-07
4.30826883559673e-07
4.09824800072927e-07
3.87511692863619e-07
3.63344842998271e-07
3.37058916839068e-07
3.07851245997521e-07
2.74673772501903e-07
2.32820699747216e-07
2.09151986884635e-07
2.27030077164945e-07
2.41218355702468e-07
2.52557667014595e-07
2.55528299539696e-07
2.52183131016984e-07
2.45002531869843e-07
2.37145476259707e-07
2.27844909875518e-07
2.18571850799278e-07
2.09441595915903e-07
2.00538883546133e-07
1.88771245999308e-07
1.74889343234853e-07
1.59931496822573e-07
1.44722408374277e-07
1.30285481957019e-07
1.18231526838271e-07
1.11547922754166e-07
1.10154674614746e-07
1.15567540524224e-07
1.32591479907028e-07
1.65601009063355e-07
2.09773332721697e-07
2.041520515324e-07
1.6997468388808e-07
1.40027065402628e-07
1.52474869827127e-07
1.3018166430184e-05
1.19103047506916e-05
6.84867143568479e-06
2.84568543164741e-06
7.51954646357356e-07
4.95835070024811e-07
5.16133660415577e-07
4.11637027282239e-07
3.48131256511101e-07
3.35580740563778e-07
3.48948186661913e-07
3.83333423735665e-07
4.44224050369268e-07
5.42546792188552e-07
6.97826928037504e-07
9.31876588941532e-07
1.27585964494144e-06
1.77069229807837e-06
2.47683372430318e-06
3.4695209493191e-06
4.82576677100716e-06
6.59653041139578e-06
8.8260237958732e-06
1.15067797174912e-05
1.44709989299755e-05
1.74520045219331e-05
1.9997971630649e-05
2.15605673005775e-05
2.61552354238723e-05
3.2818696791595e-05
3.83673140966752e-05
4.30711545280301e-05
4.72915193332002e-05
5.10939409992522e-05
5.44689190332103e-05
5.7388437708921e-05
5.99800872181978e-05
6.2254119877122e-05
6.42252254772365e-05
6.59068750263892e-05
6.73131873065606e-05
6.84590627340733e-05
6.93603935927884e-05
7.00337573270715e-05
7.04962398929644e-05
7.07650792111544e-05
7.08574193427013e-05
7.07900288487981e-05
7.057910182053e-05
7.02400778942302e-05
6.97875244163472e-05
6.92350411849592e-05
6.85952127455137e-05
6.78795823822677e-05
6.70986594213399e-05
6.62619350979411e-05
6.5377939863829e-05
6.44542396139277e-05
6.34973890098731e-05
6.25133535194876e-05
6.15071891488085e-05
6.04832152055692e-05
5.94452607966705e-05
5.83964073908016e-05
5.73391642416697e-05
5.62755457446436e-05
5.52070846726341e-05
5.41348629397065e-05
5.3059535681816e-05
5.19813455920713e-05
5.0900139118073e-05
4.98153579353753e-05
4.87260488879868e-05
4.76308181054945e-05
4.65278463561078e-05
4.5414769093295e-05
4.42887344853135e-05
4.31461191115556e-05
4.19827319467317e-05
4.07931620373565e-05
3.9571979269202e-05
3.82997087507887e-05
3.69753969014196e-05
3.56067386344967e-05
3.41816518955909e-05
3.26700611982325e-05
3.10529238137256e-05
2.9284423879181e-05
2.73414202106317e-05
2.51527728121247e-05
2.26206901721793e-05
1.93618422258789e-05
1.76539509019477e-05
1.94543937514179e-05
2.06801429887044e-05
2.16272751524066e-05
2.18868860702562e-05
2.1639063028995e-05
2.10824597358333e-05
2.04514972893888e-05
1.96686597404694e-05
1.88683372544397e-05
1.80613465352032e-05
1.72500521474894e-05
1.61906549702149e-05
1.49866192112908e-05
1.37141511803604e-05
1.24298742035162e-05
1.12183155947667e-05
1.0217239280972e-05
9.65035582684102e-06
9.46282481231112e-06
9.79104831636805e-06
1.09512583664577e-05
1.30742366849097e-05
1.54946334533305e-05
1.41328311581292e-05
1.17838340369734e-05
1.02358677873139e-05
1.18989832031861e-05
9.63220277050952e-05
9.35199365963036e-05
6.92389417488031e-05
3.66885954220751e-05
1.16277047950332e-05
7.02594549636732e-06
7.45126837256538e-06
6.03743329326312e-06
5.11102068420372e-06
4.90651639376845e-06
5.08140312667256e-06
5.55365373993027e-06
6.38688379182212e-06
7.73047939048891e-06
9.83588445909219e-06
1.2956623386486e-05
1.74112765345585e-05
2.35899784544998e-05
3.19699517669088e-05
4.29628623083822e-05
5.67607697580812e-05
7.32453776830223e-05
9.20207362444232e-05
0.000112168655996341
0.000132166131618348
0.00015054812383539
0.000166526014798729
0.000182927756481774
0.000211939952403964
0.000244447630175077
0.000269855352619962
0.000290935612633852
0.000309762169802895
0.000327043555209357
0.000343013561394792
0.000356954442614893
0.000369309883528648
0.000380170215085822
0.000389629138965879
0.000397765404469652
0.00040465390658247
0.000410367695463193
0.000414980236386272
0.000418565093486494
0.000421195953004233
0.000422945771833357
0.000423886228289121
0.000424086949935051
0.000423614974459401
0.000422534230679883
0.000420905203296888
0.000418784647889521
0.000416225451640879
0.000413276557860461
0.00040998299395131
0.000406385930560892
0.000402522851094936
0.000398427547435063
0.000394129885613278
0.00038965732061984
0.00038503395026824
0.000380280750336171
0.0003754165717591
0.000370457330577605
0.000365416517795593
0.000360305465074595
0.000355133389116077
0.000349907482864062
0.000344632979990273
0.000339313179967473
0.000333949472280218
0.000328541263281155
0.000323085955833451
0.000317578711400307
0.000312012410756752
0.000306377091770863
0.000300659999144287
0.000294844316536498
0.000288909634478727
0.000282829120307107
0.000276573821266947
0.000270064904440712
0.000263489423810383
0.000256813970689029
0.000249862851509921
0.000242485011034677
0.000234547162929724
0.00022583567552811
0.000216117161188015
0.000205104754376211
0.000191806533545403
0.000174044926251145
0.000161996997416842
0.000168175990317051
0.00017682559597592
0.0001835016851977
0.000185732172061084
0.00018459970773167
0.00018138314612486
0.000177421919990778
0.000172247435107924
0.00016661846970585
0.000160670750949862
0.000154385182503896
0.000146232009844719
0.000136907723595547
0.000126995603387861
0.000116889606768904
0.000107161477396468
9.88778412035918e-05
9.37047667483387e-05
9.11385953780242e-05
9.20632798717144e-05
9.83248318206692e-05
0.000110005466638736
0.000120832044185349
0.000113159068652162
9.72253228346741e-05
8.5929287691053e-05
8.9443512646934e-05
0.000245008180101592
0.000249073273502203
0.000201785389396777
0.00012278494925808
5.69890521221345e-05
3.89764463734108e-05
4.23647632418745e-05
3.56686580145005e-05
3.06368165354037e-05
2.93428291256997e-05
3.01070539792395e-05
3.23285378037282e-05
3.62481498147033e-05
4.24333029330053e-05
5.18236478333376e-05
6.51299867505085e-05
8.30690062806353e-05
0.000106274319917406
0.000135443585118255
0.000170769435282213
0.000211655917135925
0.000256902261269044
0.00030503472058667
0.000353485152589575
0.000398765954711543
0.000438593642741617
0.000474662399116899
0.000517449107661238
0.000586281136096039
0.000657128828861728
0.000711833024956731
0.000757618372540766
0.000798346293272589
0.000835907242800843
0.000869614446106148
0.000899080975854636
0.000925073006641766
0.000947835391869521
0.000967600185394587
0.000984559452895272
0.000998890778114885
0.00101076242748722
0.00102033906337874
0.00102778196928342
0.0010332497026005
0.00103689697239273
0.00103887394439231
0.0010393250944565
0.00103838842179131
0.00103619468595823
0.00103286694555664
0.00102852018070039
0.00102326115691819
0.00101718840645434
0.00101039237716569
0.00100295564109168
0.000994953259377303
0.000986452773478179
0.000977514117065993
0.000968192137551538
0.00095853515180631
0.000948585284689558
0.000938380166260472
0.000927951836257489
0.000917327516279561
0.000906530086904572
0.000895578211099816
0.000884486497425327
0.000873265609442733
0.000861922295703479
0.000850459399880349
0.000838875693646601
0.000827165767155886
0.000815319538679896
0.000803322042417608
0.000791152321880489
0.000778783245378416
0.000766179098597117
0.000753295884552645
0.000740076030821871
0.000726455318952405
0.000712290287075933
0.000697750212015841
0.000683122329733168
0.00066791744460747
0.000651780030904672
0.000634399407157386
0.000615323395078372
0.000594007477636152
0.000569746969910828
0.000540755322334238
0.000501657521478869
0.000473359647345304
0.000485258715176105
0.000508629355995076
0.000528070971070504
0.000537206813148913
0.000538067595324574
0.000533750134749559
0.000527184296595893
0.000517176679188954
0.000505158207008779
0.000491561799087635
0.000476247901900056
0.000455537832489422
0.000431114167406591
0.000404820527134479
0.000377845298044777
0.000351682355017181
0.000329380196128458
0.000315689245178045
0.000309087562543631
0.000311619055758363
0.000328373289758559
0.000359733409458469
0.000388183065372402
0.000360737327225453
0.000299341652291712
0.000242163486975938
0.000231380588623796
0.00045110685965091
0.000461969139242658
0.00038593027006587
0.000237335779511224
0.000133755146965787
0.000113344290503624
0.000130764882032145
0.000116821992192461
0.000103063417036784
9.88299175180012e-05
0.000100218102602822
0.000105131216953371
0.000114027903814619
0.000128070548881043
0.000149292434638391
0.000178816674206789
0.000217383707575127
0.000265190648073514
0.000322630557020093
0.000389038436915445
0.000462447685275498
0.00054038149740653
0.000620543326057332
0.000698831435320628
0.000770003970582776
0.000832018440831621
0.000890672972432862
0.000964253825168724
0.00108041864657296
0.00119837590428056
0.00128932778095941
0.00136554789418164
0.00143305322052457
0.00149402684333234
0.00154804887650015
0.00159534631742699
0.00163696648159321
0.00167334425511787
0.00170487446806023
0.00173188394113871
0.00175467262331243
0.00177352218454234
0.00178870554533774
0.00180048781770662
0.00180912762262812
0.00181487574485616
0.00181797426183975
0.00181865502626974
0.00181713860766172
0.00181363328948756
0.0018083344815448
0.00180142427205964
0.00179307131353864
0.0017834309007544
0.00177264527568955
0.0017608440526673
0.0017481447246944
0.00173465269213799
0.00172046180295483
0.00170565725564864
0.00169031413148141
0.00167449783915823
0.00165826631850765
0.00164166896135843
0.00162474757404568
0.00160753706073801
0.00159006566972977
0.00157235523974285
0.00155442136006752
0.00153627340727159
0.00151791452619523
0.00149934136154989
0.00148054381283653
0.0014615042798685
0.00144219717216933
0.00142258726298108
0.00140262903579454
0.00138226322663065
0.00136141642334995
0.00133999362522054
0.00131788597467726
0.00129488721019575
0.00127106019452849
0.00124675522249541
0.00122148390051554
0.00119461636878926
0.0011655906839725
0.00113363685808048
0.00109780800511178
0.00105677163613735
0.00100796076888754
0.000942002985903577
0.000893407840377844
0.000912352297028125
0.00095506788368
0.000994151048353298
0.0010172328744913
0.00102613594801525
0.00102592110636309
0.00102127159617221
0.00101022170052188
0.000994499784355202
0.00097490346349953
0.000951063312424042
0.000916893211574366
0.000875006131843963
0.000829161093633523
0.000781894671636165
0.00073600262978615
0.000697313389986575
0.000674938993639963
0.000666448591998673
0.000674831418459346
0.000708980896157896
0.000769921663000819
0.000825940068538892
0.000772847292066751
0.000641347346772617
0.000497000434189389
0.000443677812568399
0.000724080870227668
0.000731873156773259
0.000623868793826606
0.000377646955613111
0.000226531689348416
0.000211838861610458
0.000267829022954355
0.000257980333377381
0.000234727147642824
0.000226189490023049
0.000227458549585089
0.000234279313979348
0.000247458167613398
0.000269148436202461
0.000303038778027155
0.000350644294922081
0.000412203375737312
0.000486903238111718
0.000574535707352219
0.000673326875719143
0.000779832972918629
0.00089047909785825
0.0010023961624612
0.00111009504270651
0.00120705516740058
0.00129241663676133
0.00137673397779846
0.00148626781504561
0.00165526194829994
0.00182532376045257
0.00195696628773649
0.00206749454257779
0.00216490108877996
0.00225162704795927
0.00232808137996775
0.00239512343169756
0.00245406316668724
0.0025055466934052
0.00255014505561814
0.00258833315064518
0.00262054592754909
0.00264719057098239
0.00266865984145899
0.00268533382798976
0.0026975818786997
0.00270576105324051
0.00271021502511642
0.00271127218485862
0.00270924427600034
0.00270442514225845
0.00269708999830376
0.00268749491562308
0.0026758767290155
0.00266245322767115
0.00264742362344966
0.00263096931995848
0.00261325409024526
0.00259442500791773
0.00257461311189363
0.00255393663864581
0.0025324997745356
0.00251039324920702
0.00248769688602245
0.0024644787324255
0.00244079617847847
0.00241669683503049
0.00239221893062387
0.00236739165045237
0.00234223535114328
0.00231676160613893
0.0022909731467647
0.00226486348937374
0.0022384165215333
0.00221160548021518
0.00218439210641491
0.0021567244762069
0.00212853570563279
0.00209973953831752
0.00207022884391244
0.00203986637084101
0.00200849148348984
0.00197583485158434
0.00194182615202789
0.00190671374616143
0.00187007293799878
0.00183104492460515
0.00178878040322707
0.00174214537630545
0.00168972188272992
0.00162946000699444
0.00155791833330315
0.0014614973809204
0.00138844616829169
0.00141171622589002
0.00147516729994321
0.00153856724923421
0.00158193439425952
0.00160521327134009
0.00161495605087742
0.0016175237741647
0.00161029863382597
0.00159489961504393
0.00157240677853738
0.00154209471515106
0.00149552103925601
0.00143601630185359
0.00136966533342637
0.00130088822483709
0.00123417249959658
0.00117866561561129
0.00114853583442646
0.0011409527622944
0.00115945330047863
0.00121619344404204
0.00131264698923216
0.00140176707831967
0.00132358483400749
0.00111204875721148
0.000861002333618901
0.000740696878834302
0.0010680393800509
0.00106077150504292
0.00091942976676506
0.000552649244423138
0.000332122264441423
0.000311972811462871
0.000422691353114766
0.00044503685456642
0.000418499567165671
0.000406169474995665
0.00040675848865872
0.000414081075455382
0.000429614645785027
0.000457159637260942
0.000502694090604035
0.000568182631597903
0.000652946445159314
0.000754844386879259
0.000872874133661478
0.00100400135397018
0.0011432954356353
0.00128626253555953
0.00142956632481561
0.00156652552377945
0.00168995279620351
0.00180090121046671
0.00191490674903382
0.00206582024716485
0.00229141631477248
0.00251611254090859
0.0026913218545322
0.00283887369359762
0.00296841892521715
0.00308286226019936
0.00318359282811039
0.00327205667489777
0.00334982328756823
0.00341776424282083
0.00347663597300075
0.00352707124818901
0.00356964921989462
0.00360491144033851
0.00363337889206419
0.00365555467081961
0.00367192649207997
0.00368296498883156
0.00368912236749835
0.00369083014569869
0.00368849746969889
0.00368250961207293
0.00367322709282632
0.00366098510346724
0.00364609342948432
0.00362883676098922
0.00360947539302815
0.00358824608634778
0.00356536219742902
0.00354101559277084
0.00351537724365038
0.00348860076230627
0.00346082151861692
0.00343215741922507
0.00340271169384555
0.00337257234836996
0.00334181342645046
0.00331049606940539
0.00327866907807734
0.00324636935136029
0.00321362215757793
0.00318044118929368
0.00314682845660849
0.00311277380739348
0.00307825432233515
0.00304323302377931
0.00300765762511132
0.0029714578510217
0.00293454338823008
0.00289679858510102
0.00285807958954643
0.00281820355183036
0.00277695301780194
0.00273399388997941
0.00268911915777178
0.00264240189904301
0.00259344825309513
0.00254121318271805
0.00248455879014448
0.00242197014166383
0.00235152193410325
0.00227042384939661
0.00217431048691272
0.00204550375123502
0.00194449372317655
0.00196717778425473
0.00205000731466714
0.00214001744701154
0.00220845961174973
0.00225172947992958
0.00227698593968093
0.00229194859776613
0.00229345908063083
0.00228268962167115
0.00226081682709107
0.00222660301726993
0.00216940129242037
0.00209304147934106
0.00200613383424282
0.00191541648359829
0.00182745521372694
0.00175511915126874
0.00171798006158466
0.00171337547676055
0.00174508548015312
0.00182768261257555
0.00196258013560998
0.00208694301404995
0.00198635892286111
0.00169073773792663
0.00132567178123079
0.00112373433871621
0.00148184028422901
0.0014490691712902
0.00127227544741617
0.000773713702153753
0.000445366874591135
0.00040738437161314
0.000566654033529663
0.0006562716004239
0.000640839067715105
0.000627586590300193
0.000627851965372232
0.000634809880963092
0.000651024036279727
0.000682641493045833
0.000738512204352712
0.000821189452276127
0.000928823158325054
0.00105775812722627
0.00120601644420041
0.00136919421883107
0.00154092079412252
0.00171594392921785
0.00189053643595508
0.00205710226753985
0.00220838542997994
0.00234782024786268
0.00249578505840332
0.0026927431682787
0.00297720689919613
0.00325772043540554
0.00347842502733013
0.00366496381391609
0.00382831991140217
0.00397211042661714
0.00409867266483641
0.00420998720722177
0.00430788564387879
0.00439347423992584
0.00446770114126207
0.0045313641125522
0.00458519300550278
0.0046298699024754
0.00466604967058353
0.00469436372223386
0.00471542309291492
0.00472981666475457
0.00473810959317199
0.00474084071961896
0.00473852058238055
0.00473162967961585
0.0047206174437149
0.00470590161214975
0.00468786816149423
0.00466687173715674
0.00464323672684657
0.004617257550174
0.00458919986515526
0.00455930262084847
0.00452777885429996
0.00449481943344013
0.00446059262094429
0.00442524506809488
0.00438890476012237
0.00435168085135137
0.00431366506630248
0.00427493292731192
0.00423554448506225
0.00419554485993758
0.00415496456975021
0.00411381959305031
0.00407211120853013
0.00402982540576069
0.00398693207457988
0.00394338344279049
0.00389911238954929
0.00385402926263867
0.00380801900861566
0.00376093502685072
0.0037125947952232
0.00366276769693697
0.00361117618728847
0.00355741935869564
0.0035011576442669
0.00344227120229002
0.00338031613143483
0.00331411114241847
0.00324223654272113
0.00316279627796836
0.0030733451140655
0.00297035939874239
0.00284852963023523
0.00268646382473421
0.00255495825586524
0.00257179945841125
0.00267090350518438
0.0027878224804825
0.00288450080963282
0.00295237078451399
0.00299811796469267
0.00303029740707504
0.00304523462144448
0.00304337838260151
0.00302575779141137
0.00299044208131571
0.0029247585123348
0.00283285250721211
0.00272591109216204
0.00261330543823725
0.00250403176044657
0.00241499365725072
0.00237130314353563
0.00237096461218818
0.00241779952949964
0.00252795806285978
0.00270219243821975
0.00286186248077076
0.002741870646764
0.00236174978964646
0.00187936681447734
0.00158723846328896
0.0019624022832081
0.00189596007610824
0.00167968866930193
0.0010518552615277
0.000572351284066001
0.000497994941055488
0.000684447825322649
0.000869575938479974
0.000888437676295938
0.000880203872424917
0.000881776587515932
0.000888485787633935
0.00090447909787775
0.00093887797752087
0.00100391834988096
0.00110298441098007
0.00123296677132393
0.00138859769374166
0.00156676776049029
0.00176164603230001
0.00196550724506215
0.00217247909700813
0.00237853067353972
0.00257546802538275
0.00275646282227806
0.00292754391098924
0.00311350536430544
0.00336014453910131
0.00370454710336873
0.00404118837996467
0.00430861134635698
0.00453548019489886
0.00473390926086887
0.00490833978310515
0.00506198865782093
0.00519732484569537
0.00531644535019596
0.00542069634404672
0.00551122164399542
0.0055889887524969
0.00565488230535314
0.00570972862751044
0.00575431963629764
0.00578941785024129
0.00581576007019489
0.00583405564033125
0.00584498469901943
0.0058491953330305
0.0058473013179987
0.00583988017692249
0.0058274720222943
0.00581057888778106
0.00578966467048817
0.00576515576503488
0.00573744218094134
0.00570687756508607
0.0056737815901687
0.00563844180827517
0.00560111480154942
0.00556203005477432
0.00552139000452087
0.00547937126696139
0.00543612768835249
0.00539179058349672
0.00534647027532916
0.00530025747525207
0.00525322417754794
0.00520542430257528
0.00515689407808555
0.00510765210815415
0.00505769915332649
0.00500701742884233
0.0049555695794907
0.00490329684463676
0.00485011691951905
0.00479592027488609
0.00474056643429097
0.00468387700931204
0.00462562974049692
0.00456554505825577
0.00450328352777494
0.00443837571166215
0.00437035595921774
0.00429891016350807
0.00422348603018308
0.0041427834528369
0.00405511731986567
0.00395822120320112
0.00384913396985907
0.00372362119603133
0.00357542611871952
0.00337991830878231
0.00321630023333107
0.00322248038434029
0.0033338393971478
0.00347643865655403
0.00360301450408062
0.00369900371790915
0.00376951132991701
0.00382326427962725
0.00385598790450241
0.00386716597655146
0.00385740628281285
0.00382389073045764
0.003752099649443
0.00364634923920284
0.003520354001885
0.00338632036612108
0.00325597130549838
0.00315047669507158
0.00310046929959702
0.00310501037096961
0.00316782446503439
0.00330591614508506
0.0035188659684562
0.00371267727839077
0.00357624508279563
0.00311368349280003
0.00251307933305094
0.0021251129518384
0.002506599054181
0.00240021022302064
0.00213864637824604
0.00139492018909051
0.000720091977595156
0.000589376604609501
0.000774973560369422
0.00106481729681423
0.00114849552626458
0.00115542111566893
0.00116153194018807
0.00116924839410508
0.00118501869700867
0.00122147379514877
0.00129470479331483
0.00140929435525463
0.00156095553222306
0.00174278889003776
0.00195043576876053
0.00217662483416636
0.00241237899353244
0.002651322033326
0.00288921949201436
0.00311759108218929
0.00333039913763375
0.00353626443428146
0.00376377990685627
0.00406272134265416
0.00446718098951245
0.00485959581903012
0.00517436011285577
0.005442380365238
0.00567675292059683
0.00588277477312579
0.00606445987878407
0.00622472651034766
0.00636593878632028
0.00648968465903657
0.00659730540198218
0.0066899407575166
0.00676863196827647
0.00683435100038912
0.00688802762819942
0.00693055587844962
0.00696279838332397
0.00698558481881765
0.00699971006722371
0.00700593120369274
0.00700496502556418
0.00699748595117629
0.00698412475574694
0.00696546788396973
0.00694205739769963
0.00691439199254894
0.0068829273395278
0.00684807716363924
0.00681021582855908
0.00676968022541972
0.00672677128083479
0.00668175790264228
0.00663487751852583
0.00658633754605259
0.006536318509819
0.00648497467720848
0.0064324357337464
0.00637880829980569
0.00632417697721724
0.00626860508883763
0.00621213510795805
0.00615478872789431
0.00609656657759606
0.00603744740381085
0.00597738682654447
0.00591631523045166
0.00585413516889568
0.00579071719078736
0.00572589525805674
0.00565945898045246
0.00559114605691051
0.00552062763673491
0.00544750184155223
0.0053712296805702
0.00529122646273142
0.0052069896302834
0.00511782233638684
0.00502230438689428
0.00491850348824796
0.00480380035568451
0.00467473391604852
0.0045263909664041
0.00435157697514943
0.00412294285314126
0.00392638827873839
0.00391780578237018
0.00403705434110592
0.00420300934640035
0.00435983948637213
0.00448637919491931
0.004585138735833
0.00466428068451783
0.00471874415121379
0.00474682057183271
0.00474840961400115
0.00471960882289869
0.00464422046015477
0.00452661992259184
0.00438293078872818
0.00422829645598231
0.00407739324628698
0.00395580371445929
0.00389952438833664
0.00390894407131964
0.00398759605180203
0.00415279859086883
0.00440268288856533
0.00462884496600137
0.0044787436351025
0.00393768427530201
0.00322008695768915
0.00273245795658464
0.00311182042857401
0.00296056632749635
0.00264690067134548
0.00180726035904166
0.000896653216741563
0.000685799196353138
0.000847356167042218
0.00122666377876056
0.00140778953780859
0.0014453770965958
0.00146130282120335
0.00147254686274019
0.00148905673625377
0.00152744173049401
0.00160808984807279
0.00173728124633566
0.00190980470978033
0.00211719452627021
0.00235377040697737
0.00261084105129153
0.00287828423635231
0.00314931563929826
0.00341960056636696
0.00368064741737185
0.00392743733421685
0.00417101311594919
0.0044430452770484
0.00479597892683975
0.00525983104651456
0.0057071026987591
0.006069283166979
0.0063787999141219
0.00664960040182699
0.00688781999269306
0.00709818379090063
0.00728402576906685
0.00744797618410729
0.00759186369262797
0.00771722669595208
0.00782537749080774
0.00791751356433534
0.00799475168751968
0.00805815803114616
0.00810875624226657
0.00814753257147065
0.00817543465288051
0.00819336969577878
0.00820220141624165
0.00820274743507586
0.00819577707537886
0.00818201002875524
0.00816211567485843
0.0081367131326792
0.00810637232331488
0.00807161376012317
0.00803291096511828
0.00799069273773109
0.00794534524700954
0.00789721386873414
0.00784660716145385
0.00779379787296727
0.00773902464966773
0.00768249519167503
0.00762438726033523
0.00756485048249873
0.00750400798544716
0.00744195757840051
0.00737877257853815
0.00731450228013865
0.00724917201775062
0.00718278281162225
0.00711531042973308
0.00704670392186644
0.00697688323727255
0.00690573617463961
0.00683311372202311
0.00675882462646849
0.00668262684400805
0.00660421840886793
0.00652322163471418
0.00643917272453351
0.0063514630043363
0.00625939582277818
0.00616228993290824
0.00605928349084966
0.00594882810887927
0.00582876092540482
0.00569613113602899
0.00554700226460724
0.00537582076552631
0.00517447554606092
0.00491342116101648
0.00468377352371324
0.00465711481115898
0.00477991048606864
0.00496616714153944
0.00515251936345027
0.00531100430540746
0.00544069484852447
0.0055484430705515
0.00562813419285522
0.00567664124143623
0.00569286639058595
0.00567163177196408
0.00559521691390145
0.00546797055056718
0.0053082583268372
0.00513417378999853
0.00496349391016875
0.00482626563694089
0.00476355723987318
0.00477724094330532
0.00487061829570965
0.00506103119469637
0.00534522808414485
0.00560181896046504
0.00544083132302438
0.00482653059760275
0.00399505728447132
0.00340549393192893
0.00377597157883717
0.00357587729400034
0.00320327586280253
0.0022892507567558
0.00111177474560699
0.000791638931322302
0.000912135971849641
0.00134720185977862
0.00165223683153005
0.00174203183945715
0.00177570086304606
0.00179442442654349
0.00181368755457022
0.00185454510838905
0.00194210017920123
0.00208495160236681
0.00227738897303894
0.00250954233806356
0.0027743898364104
0.00306186736974105
0.00336081136394212
0.00366410615481613
0.00396741116232637
0.00426244390339171
0.00454531049144213
0.0048291852741228
0.00514805500055593
0.00555583041432755
0.00607774593014246
0.00657845058565779
0.00698760345819692
0.00733850850760253
0.007645836653934
0.00791651369253146
0.00815589149678225
0.00836768955732139
0.00855480015051501
0.00871928883107091
0.00886288865952489
0.00898708261263785
0.00909322190201527
0.00918256507640959
0.00925631103995548
0.00931560896105664
0.00936156430519291
0.00939523814017764
0.00941764549978812
0.00942975239159093
0.00943247316065199
0.00942666825603348
0.00941314287323014
0.00939264631086668
0.00936587234395542
0.00933345938294612
0.00929599122409258
0.00925399972114572
0.00920796694427291
0.00915832747898678
0.00910547055368875
0.00904974401168475
0.00899145574472565
0.00893087562794569
0.00886823868981997
0.00880374645209664
0.00873756885075256
0.00866984596877161
0.00860068933067037
0.00853018280083414
0.00845838308115928
0.00838531975866147
0.00831099487444274
0.00823538186106766
0.00815842385531888
0.00808003104320551
0.00800007716536894
0.00791839437824988
0.00783476700216623
0.00774892220346017
0.00766051934996137
0.00756913307973633
0.00747423915539729
0.00737516007679735
0.00727109427630562
0.0071611937192118
0.00704442248302408
0.00691909510974897
0.00678283267599455
0.00663237614718606
0.00646334425939348
0.0062695862681385
0.00604210749388506
0.00574966529413889
0.00548732947800847
0.00544005571502048
0.00556231120736185
0.00576538425100429
0.00597965251354103
0.00617052380650245
0.00633300668625931
0.00647194004090973
0.00657983274196856
0.00665190906193599
0.00668578904226738
0.00667484127024892
0.00659996404217579
0.00646541218252222
0.00629159109091676
0.00609947917185989
0.00591001453032528
0.00575765375073442
0.00568810414991121
0.00570478063664196
0.00581080552392777
0.00602358260383164
0.00633896783163759
0.00662438542700133
0.00645552575604578
0.00577413131096441
0.00483348542440031
0.00414118027998714
0.00449732018085432
0.00424508793499683
0.00380753204621025