/*--------------------------------*- C++ -*----------------------------------*\
  =========                 |
  \\      /  F ield         | OpenFOAM: The Open Source CFD Toolbox
   \\    /   O peration     | Website:  https://openfoam.org
    \\  /    A nd           | Version:  7
     \\/     M anipulation  |
\*---------------------------------------------------------------------------*/
FoamFile
{
    version     2.0;
    format      ascii;
    class       volScalarField;
    location    "7000";
    object      p;
}
// * * * * * * * * * * * * * * * * * * * * * * * * * * * * * * * * * * * * * //

dimensions      [0 2 -2 0 0 0 0];

internalField   nonuniform List<scalar> 
15600
(
0.884799607424517
0.892420641845249
0.881687072509216
0.924021150264422
0.963228374144533
0.986700806359203
0.997979279853358
1.00665021564531
1.01159539659577
1.01580716072608
1.01875447411311
1.0211231634821
1.02300640739406
1.02450762661697
1.02574507406138
1.02687993587256
1.02817370241444
1.0296540417647
1.0313744537535
1.03336229090527
1.0355596248505
1.03771250481624
1.0397577083871
1.04173641050777
1.04353117999264
1.04511536222198
1.04655147297875
1.04608697828897
1.04673112477042
1.04966981820674
1.05368740638588
1.05859792684322
1.06412431993865
1.07013523400607
1.0765042192572
1.08314178868552
1.08996782536092
1.09691483198049
1.10392296082459
1.11094014928998
1.11792100345255
1.12482652011107
1.13162371076952
1.13828520961909
1.14478889918647
1.15111744813014
1.15725786506925
1.16320101057393
1.1689411310052
1.17447539338831
1.17980345437921
1.18492705310618
1.18984964587349
1.19457607427408
1.199112278465
1.20346503931443
1.20764177230241
1.21165032538256
1.21549884965194
1.21919566145517
1.22274919118806
1.22616784476451
1.22945992917377
1.23263367985568
1.23569718826102
1.23865840007013
1.24152510446891
1.24430493977017
1.24700540526213
1.24963387847624
1.25219764535023
1.25470392632515
1.25715992840729
1.25957287334592
1.26195008723264
1.26429901200631
1.26662737663347
1.26894313495146
1.27125483879373
1.2735713228485
1.27590264527986
1.27825881958433
1.28065235435374
1.28309564985874
1.28560671422481
1.28819929303077
1.29090072252838
1.29372396117223
1.2967172762476
1.29988097448878
1.30331635038483
1.30694275032569
1.31104973892043
1.31581574954146
1.31959720929601
1.32347114791546
1.32699980928366
1.33025725357927
1.3330640102384
1.33522614616283
1.33623027338082
1.33598208671823
1.33414622440845
1.33061557938579
1.32512585329171
1.31851480089067
1.31055354481176
1.30064053842881
1.288135763038
1.27160670774483
1.24826994108173
1.21165408757495
1.15965004471924
1.09008927142403
0.993651971448706
0.876883587208451
0.758927240323181
0.751860203631736
0.790157728104597
0.859889008048434
0.884824057842017
0.892561466630995
0.881921246168001
0.923583489929394
0.962514060368763
0.986167954930168
0.997619524862371
1.00638742879427
1.01141641050732
1.01566816902758
1.0186580065777
1.02105339642203
1.02295921880255
1.02447822865302
1.0257269495359
1.0268621037749
1.0281466272659
1.02961405733977
1.03131829354576
1.03328993406632
1.03547853068179
1.03763253192849
1.03968123869333
1.04166470793872
1.04346605861507
1.04505922287062
1.04650628597292
1.04606877032377
1.0467598765525
1.04971083740433
1.05373052088404
1.05864223778925
1.06416786660615
1.07017708548176
1.07654361039022
1.08317815250742
1.09000067968486
1.09694388569787
1.10394803367698
1.11096116338921
1.11793796565698
1.12483950934178
1.1316328646168
1.13829071208573
1.14479096925549
1.15111632939215
1.15725381661828
1.16319429915048
1.16893202446238
1.17446415536647
1.17979034014087
1.18491230639208
1.18983349666573
1.19455873730828
1.19909395246091
1.20344590611797
1.20762199272084
1.21163006353667
1.21547833242303
1.21917507009035
1.22272859147442
1.22614728665829
1.2294394756764
1.23261338915561
1.23567710928866
1.23863857343361
1.24150556310141
1.24428570957009
1.24698650567906
1.2496153230329
1.25217944212545
1.25468607834619
1.257142434047
1.25955572656021
1.26193327793261
1.26428252605957
1.26661119639085
1.26892723874225
1.2712392021997
1.27355591664982
1.2758874422479
1.27824377845838
1.28063742544347
1.28308077941101
1.28559187881321
1.28818444293096
1.29088587555983
1.29370905921735
1.29670248953618
1.29986624389233
1.30330261463187
1.30692866384329
1.31103740149728
1.31582492225511
1.31962236863602
1.32351332978668
1.32704952281754
1.33030501475954
1.33309409864347
1.33521442324841
1.33615649547686
1.3358328599287
1.33391120562675
1.3302906104611
1.32473167441597
1.31806410806019
1.31002262881683
1.29999801171748
1.28733016274289
1.27053860544892
1.24675427958104
1.20959294384304
1.15710666730662
1.0871203239951
0.990766919553927
0.87527669851701
0.759995506285422
0.753372176820858
0.790751649329413
0.859992073841383
0.884928585774645
0.892949205034741
0.882698612024426
0.923595925260751
0.961928643186461
0.985712282328206
0.997297415626637
1.0061487857655
1.0112507275834
1.0155373125835
1.01856557034584
1.02098654126131
1.02291431458797
1.02445107480301
1.02571193036017
1.02684867555325
1.02812273843537
1.02957287043965
1.03125315908283
1.03319633130134
1.03535859013591
1.03749578128236
1.03953215239028
1.04150574096816
1.04330215217372
1.04489262600634
1.04633953643566
1.04598523929413
1.04677915232367
1.04974256335403
1.05375906358225
1.05866644722316
1.06418528475587
1.07018736284293
1.07654640729042
1.08317341761902
1.08998844418713
1.09692442197757
1.10392171417745
1.110928453177
1.11789939317176
1.12479564794886
1.13158431308363
1.13823807823448
1.14473485586859
1.15105732255777
1.15719247666371
1.16313115379026
1.16886756413442
1.17439883031616
1.17972455909028
1.18484643644068
1.18976786421156
1.19449362967518
1.19902962014714
1.20338256338371
1.20755985153497
1.21156930713045
1.215418980458
1.21911713572863
1.22267219072593
1.22609251763271
1.22938641002712
1.23256208075832
1.23562759929819
1.23859089230974
1.24145973221082
1.24424174275518
1.24694441068372
1.2495751027976
1.25214109603966
1.25464960332731
1.25710782574065
1.25952298021509
1.2619023897838
1.26425349387455
1.26658402157215
1.26890192597038
1.2712157637467
1.27353436932656
1.27586781060649
1.27822611310665
1.2806218125228
1.28306727275666
1.28558060431859
1.28817550796036
1.29087957592307
1.293705538255
1.29670241906095
1.29986960416972
1.30331095454043
1.30694091828785
1.3110410048148
1.31583137372601
1.31962443406052
1.32351832426917
1.32704751696469
1.33028848695515
1.33304724607869
1.33511688773569
1.33599460904046
1.33559956431526
1.33360120331599
1.32990653955259
1.32429449065223
1.3175754876642
1.30945229163636
1.29931439136107
1.28648219572277
1.26943306339258
1.24525380750018
1.2076912126905
1.15495208693819
1.08493851050141
0.989387715473428
0.876276839871655
0.764392082771272
0.757295741657871
0.792386431286918
0.860303944172743
0.885158007628289
0.89363383534774
0.88414304576718
0.924275165246949
0.961514025506072
0.985320409354481
0.996996073828923
1.0059206584998
1.01109027766259
1.01540738469206
1.0184720424894
1.02091907109769
1.02286998123914
1.02442600945615
1.02570083875072
1.02684032429156
1.02810070855845
1.02952636328461
1.03117191660057
1.03307196741305
1.03518941489622
1.03729339531151
1.03930488890467
1.04125846068263
1.04304413033122
1.04462874968717
1.04607603799296
1.04586641961791
1.04680167515625
1.04977158206297
1.05377618920927
1.05866992130588
1.06417287217714
1.07015940067311
1.07650327441476
1.08311597109103
1.08991748439047
1.09684096235818
1.10382684743418
1.11082334705846
1.11778525205835
1.12467368956138
1.13145574292931
1.13810406876305
1.14459652910053
1.15091573645506
1.15704861546318
1.16298592162274
1.16872178184915
1.1742532347522
1.17957980451798
1.18470309759313
1.18962644058228
1.19435455058868
1.19889325003246
1.20324921475024
1.20742975180121
1.21144258778833
1.21529580939155
1.21899768791605
1.22255657191354
1.22598080627417
1.22927865936231
1.2324583247346
1.23552785716329
1.23849517201935
1.24136803329043
1.24415405904917
1.24686073288168
1.24949542077977
1.25206540120527
1.25457789070948
1.25704009641429
1.25945924329435
1.26184266538995
1.26419781494766
1.26653243839284
1.26885450709205
1.27117260454821
1.27349558997367
1.27583356554182
1.27819665120767
1.28059746349296
1.28304830182567
1.28556742860318
1.28816858192229
1.29087970852324
1.29371337482113
1.29671946770942
1.29989633946285
1.30334964922167
1.30699186492672
1.31106896766779
1.31582846177272
1.31958848978906
1.32346326126989
1.32696367038405
1.33017103910898
1.33287989082889
1.33488211533934
1.33568482280554
1.33521296110412
1.33313670359717
1.32937269587349
1.32371505912075
1.31694457181358
1.30873267637192
1.29847055050358
1.28545794677337
1.26813273750958
1.24356526710831
1.20567094931592
1.15280246743311
1.08298014245784
0.988615589140562
0.878526441800542
0.770686246058089
0.763136697485653
0.795279380670944
0.860952215025438
0.885510003066817
0.894546243186978
0.885991864245504
0.925419615357207
0.961363081844832
0.985009843306021
0.996706450726115
1.00568445334461
1.01092434913944
1.01527201286315
1.01837383458331
1.02084945382398
1.02282666948691
1.02440541547886
1.02569746386002
1.02684141546041
1.0280854362975
1.02948077280141
1.03108348125514
1.03293078226204
1.0349930348107
1.03705597047411
1.03903763245526
1.04096832941843
1.04274340440806
1.04432593557874
1.04577971883524
1.04573792894649
1.04681885423415
1.04979234542356
1.05378239134204
1.05865719746893
1.0641389639996
1.07010489954679
1.07642890333214
1.08302291170442
1.08980700146513
1.09671450080161
1.10368592666848
1.11066955085654
1.11762018691151
1.12449895771366
1.13127291414905
1.13791465688601
1.14440197301179
1.15071738524542
1.15684771832577
1.16278362151651
1.16851911291871
1.17405112255666
1.17937906876986
1.18450445669373
1.18943051759623
1.1941618800086
1.19870428448323
1.20306433207691
1.20724925498916
1.21126675139987
1.2151248794806
1.21883183527293
1.22239591185907
1.22582542175405
1.22912860833593
1.232313643749
1.2353885659065
1.2383612776817
1.24123953427886
1.24403094855089
1.24674300217307
1.24938306233575
1.25195841181736
1.25447627437915
1.25694386765222
1.25936842997415
1.26175731286204
1.26411798882697
1.26645823076867
1.26878603852435
1.27111003537424
1.27343911978309
1.27578344886373
1.27815323752673
1.28056126662228
1.28301977806613
1.28554717442758
1.28815726373514
1.29087843800902
1.29372307568415
1.29674204087857
1.29993249676914
1.30340139150428
1.30705996972796
1.31110779781202
1.31581783194787
1.31952600232191
1.32336352760196
1.32681613652251
1.32997201946055
1.33261188515306
1.33452808389395
1.33523925859138
1.33467674506519
1.33251130518876
1.32867064027284
1.3229629407727
1.31613423193514
1.30782211541682
1.2974187240595
1.28420070015796
1.26656556548149
1.24157854521909
1.20334621268589
1.15036769913404
1.08079997806344
0.987752447343399
0.880906358212054
0.777343467948837
0.769593805613885
0.798799511480902
0.861844149631474
0.885983689674683
0.895624343124502
0.888024864727679
0.926759336806622
0.961516040974937
0.984815606306766
0.996474346791148
1.00544100258388
1.01075158385769
1.01513265780749
1.01827367091584
1.02078105307458
1.02278819215586
1.02439324357791
1.02570527762331
1.02685478624573
1.02808046599891
1.02944154060675
1.0309962551329
1.03278525736873
1.03478663750297
1.03680396015714
1.03875262673638
1.04065876110921
1.04242295155878
1.04400543173943
1.0454684323164
1.04559843728411
1.04682104021437
1.04980075512163
1.0537789079714
1.05863338599021
1.06409206008084
1.07003505833315
1.0763367815078
1.08290975586734
1.08967425770432
1.09656379923778
1.10351899380377
1.11048818090896
1.11742619815384
1.12429415965334
1.13105907708196
1.13769348570342
1.14417508670515
1.1504863007651
1.15661383980475
1.16254823355278
1.16828337798572
1.17381608146451
1.17914564387118
1.18427345702893
1.18920264560951
1.19393773884372
1.19848438945882
1.20284911028953
1.20703907350732
1.21106192456389
1.21492564397591
1.21863837158707
1.22220835955592
1.22564388398304
1.22895315953631
1.2321443338122
1.23522542544377
1.23820432289417
1.2410887711634
1.24388637691976
1.24660461939292
1.24925086684656
1.25183240665088
1.25435647043223
1.25683028738081
1.25926111060516
1.26165631092812
1.26402338327216
1.26637012965679
1.2687045812508
1.27103540457054
1.27337154112242
1.2757232094914
1.27810070637668
1.28051698852422
1.28298427587741
1.28552108942716
1.28814125170989
1.29087358252892
1.29373019038177
1.29676276724226
1.29996711940875
1.30345028137209
1.30712322935532
1.31114094955316
1.31579889109481
1.31944843931296
1.32323808422338
1.32662992007503
1.32972112542833
1.33227805294687
1.33409447882285
1.33470073223728
1.33403532315441
1.33177004356294
1.32784429266639
1.32207867234038
1.31518240225774
1.3067579851054
1.29619717683195
1.28275130516332
1.26477791011184
1.23934509113372
1.20076392051573
1.14768449276536
1.07841821930039
0.9867831054612
0.883284725865163
0.784060301426371
0.776249921127467
0.802637155124837
0.862944715977576
0.886583306612035
0.896837807021546
0.890176355477479
0.928219717091401
0.961912873115346
0.984710671860382
0.996358033325903
1.00520984955127
1.01057667700574
1.0149935154283
1.01817566799549
1.02071716647938
1.02275687685383
1.02439056122046
1.02572401078956
1.02687942346851
1.02808550294825
1.02940992161829
1.0309134140246
1.03264058506644
1.03457702433477
1.03654472535104
1.03845705528598
1.04033636294522
1.04208814647027
1.04367115923546
1.04514410200078
1.04544664780312
1.04680712966691
1.04979628677407
1.05376592220259
1.05859982655236
1.06403466273982
1.06995332018437
1.07623122814677
1.08278160089882
1.0895250207329
1.09639520161802
1.10333288501716
1.11028648677068
1.11721087634158
1.12406716003262
1.13082230930471
1.13744879010502
1.14392421230674
1.15023088767223
1.15635540755094
1.16228817372724
1.16802295130956
1.17355641813163
1.17888774685008
1.18401820744433
1.18895080977693
1.19368997610418
1.19824126256603
1.20261109377781
1.20680656486297
1.21083524768336
1.21470505491114
1.21842407530478
1.2220005164226
1.22544261447353
1.22875855200915
1.2319564494193
1.23504430398325
1.23802998802671
1.24092123498533
1.24372564430622
1.24645069203371
1.24910374703604
1.2516921010528
1.25422299357244
1.25670366553736
1.25914138517681
1.2615435431024
1.26391765718501
1.26627155913326
1.26861331188844
1.27095162544035
1.27329548416347
1.27565516934524
1.27804104695518
1.28046623472474
1.28294295486654
1.28548983365808
1.28812064462364
1.2908645785952
1.29373338201844
1.29677935909207
1.29999682343054
1.30349175784424
1.30717563434024
1.31116262944635
1.31576921352025
1.31935810888928
1.32309335888785
1.32641505280328
1.32943125224895
1.33189437108458
1.33360057884635
1.33409158194208
1.33331349625956
1.33093975346501
1.32692165915371
1.32109016417655
1.31411647687923
1.30556820342208
1.29483563826462
1.28114304100233
1.26280986315807
1.23691535329044
1.19798474195381
1.14482272748495
1.07591296640895
0.985789045260541
0.885717967025069
0.790827415296199
0.783024515512502
0.806709914895679
0.864247848297277
0.887305254904818
0.89816525719227
0.892410326330066
0.929776788585963
0.962443846845537
0.984665512338391
0.996366046724466
1.00501966175878
1.0104059995621
1.01485762866627
1.01808217908367
1.02065895632483
1.02273276678581
1.02439635509033
1.02575192855492
1.0269134690477
1.02809933587498
1.02938567309856
1.03083572566245
1.03249847885645
1.03436664228485
1.03628106715559
1.03815379876839
1.04000392686341
1.04174151127132
1.0433257031168
1.04480933080667
1.04528413872986
1.04677817817916
1.04977960652639
1.05374398734376
1.05855749509026
1.06396825033862
1.0698616137929
1.07611461421913
1.08264119883035
1.08936237179501
1.0962120687241
1.10313119451351
1.11006825142511
1.11697815157585
1.12382199707192
1.13056672134619
1.1371847203858
1.14365351075429
1.14995529183604
1.15607652999937
1.16200749387534
1.16774181196069
1.17327602546174
1.17860917354814
1.18374239806103
1.18867858763441
1.19342205364624
1.19797824654813
1.20235349650509
1.2065548158382
1.21058969811958
1.21446598997491
1.21819172409747
1.22177505824623
1.22522418569967
1.22854725421203
1.23175235465189
1.23484746101122
1.23784042781563
1.24073897557847
1.24355069542812
1.2462830593628
1.24894343620542
1.25153912159645
1.25407736257167
1.25656541162613
1.25901055198742
1.26142019395133
1.26380187818656
1.26616346578569
1.26851305090258
1.27085938593161
1.27321149630199
1.2755797248014
1.27797449490665
1.28040906507687
1.28289566722349
1.28545302381401
1.28809480434566
1.2908505020512
1.29373141122689
1.29679022734115
1.30001967369773
1.30352378537298
1.30721499544749
1.31117018434185
1.31572619387491
1.31925377404376
1.32293007826211
1.32617422234717
1.3291065609114
1.33146638811436
1.33305333167577
1.33342007933025
1.33252056575257
1.33003049620766
1.32591308372097
1.32000744858812
1.31294589857845
1.30426200801011
1.2933436666939
1.27938669241715
1.26067522626909
1.23430827168513
1.19503345597202
1.14181297110034
1.07331958037991
0.984806243814828
0.888226291647592
0.797628547972333
0.789858800896293
0.81095210460759
0.865726656737718
0.888144243624954
0.899589738735125
0.894700040588547
0.931380169267536
0.963047304936052
0.984683985376682
0.996448968880089
1.00490028216936
1.01024669598634
1.0147263499654
1.01799374883517
1.0206061227279
1.02271487273813
1.02440914288805
1.02578737240558
1.02695543771438
1.02812102074289
1.02936854406895
1.03076364169479
1.03236006996358
1.03415724663617
1.03601517027862
1.03784527835402
1.03966402023591
1.04138567521692
1.04297198301443
1.04446729718164
1.04511278328686
1.04673517835238
1.04975148656955
1.05371383300468
1.05850746430406
1.06389430358642
1.06976180568937
1.07598917977404
1.08249111365034
1.08918915963411
1.09601749355208
1.10291722119648
1.10983694162185
1.11673162225758
1.12356236635094
1.13029607385341
1.13690507271182
1.14336678700569
1.14966330319356
1.15578096119236
1.16170989414541
1.16744359093848
1.17297845261751
1.17831338096607
1.18344938547636
1.1883892294606
1.19313710869346
1.19769836395171
1.20207922683573
1.20628662150794
1.21032796200977
1.21421102471957
1.21794378201981
1.22153433865037
1.22499084223324
1.22832140327248
1.23153408090147
1.23463682389915
1.23763746726751
1.24054371711947
1.24336315499001
1.2461032477411
1.24877136321985
1.25137480016442
1.2539208124547
1.25641666348365
1.25886965083618
1.26128720377192
1.26367688491205
1.26604658357303
1.26840442360778
1.27075919751933
1.27311996854688
1.27549713743438
1.27790117319911
1.28034545311007
1.28284221350294
1.28541026144782
1.28806311433094
1.29083048811175
1.2937231361641
1.29679391934976
1.30003389400429
1.30354444488461
1.30723916068633
1.31116125464108
1.31566761644961
1.31913384236651
1.32274790152162
1.32590855281789
1.32874930785133
1.3309973661843
1.33245691361453
1.3326912089357
1.33166211629095
1.32904823003805
1.32482449501005
1.31883598229373
1.31167549476175
1.30284377912821
1.29172544187266
1.27748685992863
1.25838028165747
1.23153327317906
1.1919232912772
1.13867282890434
1.07065964672897
0.983856353685756
0.890816901968417
0.804447129686702
0.796714066433598
0.815319258894826
0.867357166909608
0.88909678489506
0.901098427859435
0.897033281959793
0.932976109411591
0.963706900360208
0.984792556576131
0.996542003251005
1.00487683273068
1.01010903508455
1.01460094534551
1.01791046467546
1.02055815054359
1.02270225424796
1.02442775679496
1.02582917627256
1.02700436839211
1.02815002121632
1.02935852451469
1.03069768495652
1.03222640139885
1.03395037823441
1.03574892576615
1.03753357606637
1.03931886448675
1.04102294986811
1.04261248176635
1.04412058725922
1.0449341250961
1.0466790921827
1.04971270543492
1.05367615615857
1.05845070920078
1.06381414009144
1.06965554736609
1.07585690028537
1.08233360612774
1.08900789904635
1.09581421061378
1.10269388646257
1.10959563256532
1.11647448563408
1.12329155664221
1.13001371849806
1.1366132351539
1.14306744143522
1.14935831285548
1.1554720639932
1.16139869272305
1.16713154777781
1.17266688882643
1.17800347850754
1.18314219155683
1.18808566483557
1.19283797362924
1.1974043457328
1.2017909131408
1.20600450775151
1.2100524614771
1.2139424769374
1.21768246336917
1.22128046994421
1.22474459615191
1.2280829129126
1.23130344547896
1.23441411549257
1.23742273664553
1.24033699905357
1.24316447321206
1.24591261953627
1.24858880369984
1.2512003264178
1.25375444734466
1.25625843968827
1.25871961426443
1.26114541800048
1.26354343397876
1.26592157778224
1.26828800056688
1.27065153149726
1.27302126708934
1.27540766029113
1.27782121336429
1.28027539880001
1.28278244427977
1.28536122402846
1.28802505945627
1.29080380197922
1.29370757727794
1.2967891841029
1.30003794791657
1.30355207388469
1.30724627959912
1.31113381062207
1.31559148252723
1.3189965785949
1.32254592930944
1.32561832488615
1.32836077035458
1.33048949672324
1.33181432914473
1.33190870497659
1.33074246129453
1.32799765156838
1.32366059638064
1.31758008920468
1.3103090790603
1.30131693917635
1.28998417965735
1.27544714150342
1.25593017808982
1.22859844289852
1.18866609597315
1.13541882480188
1.0679543308008
0.982961535179312
0.893500134690115
0.811275853890123
0.803570230412468
0.819789139442615
0.869126061081845
0.890161621712927
0.902681970479516
0.899405849121035
0.934521670124992
0.964408182390339
0.985003557718464
0.996618234721521
1.00495872639886
1.01000800316595
1.01448378447224
1.01783265541001
1.02051478440619
1.02269429327411
1.02445140056241
1.02587655579982
1.02705964019718
1.02818603880431
1.02935572110431
1.03063837554562
1.03209839816361
1.03374735993479
1.03548394591929
1.03722046952121
1.03897037133905
1.04065535038563
1.04224930607307
1.04377132153521
1.04474953554002
1.04661094313669
1.04966408492335
1.05363162910877
1.05838811554972
1.06372892584036
1.06954429095822
1.0757195088254
1.0821706600049
1.08882079921548
1.0956046250402
1.10246376271563
1.10934703465119
1.11620956172498
1.12301247016623
1.12972261385788
1.13631219864061
1.1427584754358
1.14904331305107
1.1551528041665
1.16107681392254
1.16680855259559
1.1723441393825
1.17768219792998
1.18282346812499
1.18777045969077
1.19252712405705
1.1970985760495
1.2014908454825
1.20571066988523
1.2097652965968
1.21366235209635
1.21740968014882
1.22101527204585
1.22448717690839
1.22783342388309
1.23106200227835
1.23418080468626
1.23719762165655
1.24012012561228
1.24295587441534
1.24571232053137
1.24839682602702
1.25101669219174
1.25357918305931
1.2560915801873
1.25856120606296
1.26099552346972
1.26340213388372
1.26578897648186
1.26816422654162
1.27053674540185
1.27291565720146
1.27531145935846
1.27773467463753
1.28019884586964
1.28271617375325
1.28530557550279
1.287980135562
1.29076974888784
1.29368383029661
1.29677489322477
1.30003047661363
1.30354524429303
1.30723483105459
1.31108613245828
1.31549587876645
1.31884004867731
1.32232272248884
1.32530301514255
1.32794128266227
1.3299439395821
1.3311274666889
1.33107512548381
1.32976471756874
1.32688226212837
1.32242492209904
1.31624300891646
1.30884949431482
1.29968402195285
1.28812226423351
1.27327036053128
1.2533292996869
1.22551107445257
1.18527301881655
1.13206698421244
1.06522447452146
0.98214365090285
0.896287406535587
0.818111472041908
0.810414984163019
0.824349317498704
0.871026378948758
0.891339122440552
0.904333653613238
0.901815777746722
0.935989288358202
0.96513533176014
0.985305381698073
0.996692961263695
1.00513040205208
1.00996271047492
1.01437914203407
1.01776108516247
1.02047606759174
1.02269065298402
1.02447953930812
1.02592895962595
1.02712082587548
1.02822890140389
1.02936029357351
1.03058621936861
1.03197690865231
1.03354938888745
1.03522169759477
1.03690759457238
1.03862031942228
1.04028477008463
1.04188437848725
1.0434213803987
1.04456029929582
1.04653180104083
1.04960649522661
1.05358093665283
1.05832054277011
1.06363975755059
1.06942938982534
1.07557861300037
1.08200411313587
1.08862990671506
1.0953909656598
1.10222923478961
1.1090936616429
1.11593946677465
1.12272779996685
1.12942550547834
1.13600473858769
1.14244267361027
1.14872107898504
1.15482593110785
1.16074696709427
1.16647726257284
1.17201279917184
1.17735206343767
1.18249566300634
1.18744597928555
1.19220683904412
1.19678324574263
1.2011811248497
1.20540711832138
1.20946838726069
1.21337248023654
1.21712717357857
1.22074039868321
1.22422015230799
1.22757441979113
1.23081115252068
1.23393821214495
1.23696336420097
1.23989426163475
1.24273844794478
1.24550336596446
1.24819637249895
1.25082476774446
1.25339581841151
1.25591681258118
1.25839508244421
1.260838104341
1.26325349553142
1.2656492154372
1.26803345953896
1.27041511587468
1.2728033295275
1.27520863281823
1.27764155564993
1.28011568524255
1.28264317324262
1.28524294908389
1.28792782106083
1.29072763258637
1.29365100918812
1.29674996473041
1.30001019987558
1.30352263309101
1.30720344722398
1.31101666662558
1.31537894004059
1.31866219535638
1.32207646786091
1.3249615070581
1.32749046275279
1.32936106740804
1.330397364532
1.33019212926034
1.32873107652421
1.32570462406568
1.32112007300095
1.31482710670346
1.30729880656272
1.29794687065411
1.28614146902554
1.27095882028973
1.2505815585533
1.22227798751431
1.18175476632186
1.12863292441368
1.06249035232184
0.981423377845633
0.899189249185311
0.824951532620251
0.817239102456227
0.828991184022574
0.873054171804063
0.892630630924557
0.906048772565206
0.904261396163529
0.937369845459527
0.965873857191633
0.98567981301428
0.996800115719957
1.00534858075059
1.0099933459719
1.01429407890529
1.01769715353576
1.0204423585769
1.02269124934602
1.0245118407087
1.02598599257872
1.02718761725217
1.02827851213068
1.02937243510301
1.03054172201654
1.03186275069619
1.03335761021393
1.03496359266239
1.03659654244177
1.03827044812706
1.03991306306654
1.0415195187045
1.04307249296921
1.0443676411229
1.04644277895042
1.04954085788949
1.05352479648815
1.05824885921328
1.06354770988448
1.06931215648923
1.07543576252359
1.08183573373774
1.0884371890205
1.09517537480202
1.10199259507513
1.10883793026394
1.11566671651933
1.1224401361436
1.12912503442775
1.13569352520024
1.14212271530479
1.14839428114164
1.15449409050829
1.16041175928609
1.1661402342913
1.17167536434008
1.17701550325591
1.18216112998166
1.18711449606675
1.19187930795527
1.19646045796287
1.200863766782
1.20509578025284
1.20916357231373
1.21307461237635
1.2168366077912
1.22045742838153
1.22394501678935
1.22730731266861
1.23055222760288
1.23368759042547
1.2367211397593
1.23966050720659
1.24251322004317
1.24528670961487
1.24798832559662
1.25062536516546
1.25320509570614
1.25573480964334
1.25822184650287
1.26067369340414
1.26309798024828
1.26550268268778
1.26789601176775
1.27028687577652
1.2726844330827
1.27509923960117
1.27754181823782
1.28002577356472
1.28256318347971
1.28517295262414
1.28786757502284
1.29067674509888
1.29360822612619
1.29671333075433
1.2999758695486
1.30348295709779
1.3071508204443
1.31092394285077
1.31523883392342
1.31846089907411
1.32180511320025
1.32459226954237
1.32700740927368
1.32874068178752
1.32962445299339
1.32926074201743
1.32764308468156
1.3244666502182
1.31974801166124
1.31333416970807
1.30565860415902
1.2961069563647
1.28404331493842
1.26851471478139
1.2476908700054
1.21890607017999
1.17812219144361
1.12513259410986
1.0597723921741
0.980820528991049
0.902215102789828
0.831793749059313
0.824035198921678
0.833708199918844
0.875207054746109
0.894037979878399
0.907824174561943
0.906740916985424
0.938672389311915
0.966604634510303
0.986107493184435
0.99696894287217
1.0055621954316
1.01011701000798
1.01423938773959
1.01764324762502
1.02041439722002
1.02269626485516
1.02454816189486
1.02604738258248
1.02725978609004
1.02833481981759
1.02939235889492
1.03050539286861
1.03175673222084
1.03317315097635
1.03471102905922
1.03628890243212
1.03792249623435
1.03954207675579
1.04115648059321
1.04272628415144
1.04417275178568
1.04634504469978
1.04946815318475
1.05346397304683
1.05817396204948
1.06345386011851
1.06919389175923
1.07529248228716
1.08166725699812
1.08824457391396
1.09495995009836
1.10175608726462
1.10858220552138
1.11539377275646
1.12215201338817
1.12882378555944
1.13538117225668
1.14180122373989
1.1480655346135
1.15415987375205
1.16007374460036
1.1657999729307
1.17133428124732
1.17667489777952
1.18182217538223
1.18677823815475
1.1915466774661
1.19613227489066
1.20054074738211
1.20477854488235
1.20885265391385
1.21277046403297
1.21653961250566
1.22016790624315
1.22366323226641
1.22703348283371
1.230286527938
1.23343016175606
1.23647209407125
1.23941993319951
1.24228118821165
1.24506327694326
1.24777353986094
1.25041926894239
1.25300772994732
1.25554621711287
1.25804207453281
1.26050279684984
1.26293602293271
1.26534973998611
1.267752169264
1.27015223188323
1.27255909088146
1.2749833127861
1.27743539849934
1.27992894171855
1.28247592008237
1.28509517070155
1.28779883585164
1.29061636179943
1.29355458250423
1.29666392355033
1.29992625033772
1.30342494793169
1.3070756679475
1.31080653597421
1.31507374903382
1.31823400778615
1.32150644543843
1.32419346626931
1.32649082106453
1.32808213973649
1.32880869340791
1.32828150951796
1.32650180606219
1.32316977289464
1.3183102384392
1.31176558993552
1.30393018850747
1.29416558848675
1.28182931617381
1.26594041730025
1.24466148364388
1.21540266243753
1.17438695766197
1.12158326946857
1.05709160295202
0.980354570493279
0.905373306819132
0.838635836389426
0.83079711354985
0.838495045736821
0.877483440488645
0.895563154295213
0.909657912697467
0.909252306377904
0.939919095296642
0.967300564682416
0.986566055641229
0.997207792333359
1.00574538962149
1.01033959577004
1.01423002446154
1.01760328153802
1.02039342041663
1.02270618849543
1.02458856365605
1.02611297358009
1.0273371654311
1.0283978011756
1.02942028740172
1.0304777436058
1.03165965929582
1.03299713631582
1.03446541155989
1.03598628430698
1.03757822259988
1.03917367117164
1.04079697972288
1.0423843133346
1.04397681376548
1.0462398326738
1.04938942770593
1.05339928989696
1.05809679229874
1.06335930566713
1.06907590426323
1.07515029343851
1.0815004074602
1.08805397272542
1.09474676841006
1.10152193073347
1.10832882538596
1.1151230681879
1.12186593589648
1.12852431242211
1.13507026197108