/*--------------------------------*- C++ -*----------------------------------*\
  =========                 |
  \\      /  F ield         | OpenFOAM: The Open Source CFD Toolbox
   \\    /   O peration     | Website:  https://openfoam.org
    \\  /    A nd           | Version:  7
     \\/     M anipulation  |
\*---------------------------------------------------------------------------*/
FoamFile
{
    version     2.0;
    format      ascii;
    class       volVectorField;
    location    "7000";
    object      U;
}
// * * * * * * * * * * * * * * * * * * * * * * * * * * * * * * * * * * * * * //

dimensions      [0 1 -1 0 0 0 0];

internalField   nonuniform List<vector> 
15600
(
(0.102769418035806 -0.000386508470994548 -1.15824219139581e-21)
(0.12478925009853 -0.00345261376959002 -2.3871301897934e-18)
(0.0874045168856292 -0.0115179320138248 0)
(0.00489483779350197 -0.00426951305694542 -2.03315270514199e-17)
(-0.0433078168950479 0.0171836032226636 -2.39956208702843e-21)
(-0.0393811563079479 0.0223302085575358 -1.47061534766701e-20)
(-0.0266835736358189 0.0180794273767938 -4.17607053236109e-17)
(-0.0207809430756657 0.0155501295216138 4.3027898954102e-17)
(-0.0170051763163981 0.0135378654233149 -1.25960124803495e-14)
(-0.0155745417012394 0.0126280302474844 -1.32190264594573e-14)
(-0.014493565602554 0.0116753823659165 1.22194217366476e-20)
(-0.0142078023464332 0.011262070132852 -2.56753440813605e-20)
(-0.0142107538586602 0.0111289739298111 2.70108182961181e-20)
(-0.0147007426317236 0.0114129966501778 -5.77055495736706e-17)
(-0.0158554476453011 0.0122241879515314 -6.00434967077799e-17)
(-0.0177806761815162 0.0136089789579909 -6.06036990867199e-20)
(-0.0202165826126179 0.0153083775219254 -6.38302779346782e-17)
(-0.0229256677155715 0.016940520555115 1.32024902634999e-16)
(-0.0258889822428967 0.0183442608827075 -6.81861407558112e-17)
(-0.0288867586815621 0.0192456817652117 -7.10745676128976e-17)
(-0.0315705717945015 0.0193283960746294 7.37763601309338e-17)
(-0.0339835883615776 0.0185393177931922 -7.65731840599159e-17)
(-0.0364052683252118 0.0171392017692995 -2.98395542743968e-22)
(-0.0385987679884655 0.015140794583653 8.12659266092097e-17)
(-0.0403488734665041 0.0125171591337039 0)
(-0.0415724358330833 0.00933822975418312 0)
(-0.0411590254790498 0.0055508908517177 -6.18052363412277e-15)
(-0.0451202085625182 0.00200591499544654 -6.18524698852293e-15)
(-0.0575882089293986 0.000467768611283334 1.91836638454615e-23)
(-0.068366323575546 0.00047311123983539 5.57940683700476e-31)
(-0.0745028064693555 0.000466180125222588 0)
(-0.0785364756924783 0.000458304964668957 -6.44155099423292e-15)
(-0.0809419660006374 0.000452683735884756 -6.50427336601133e-15)
(-0.0822008275602535 0.000442262689867307 0)
(-0.0825019716942675 0.000428277604278315 0)
(-0.0820166295856046 0.000411094659171829 0)
(-0.0808682875137618 0.00039212041965317 0)
(-0.0791530930112434 0.000371293092158474 -7.5900456876014e-20)
(-0.076950246862667 0.000349230376127476 6.31775219632209e-15)
(-0.0743318006691923 0.000326434058822951 6.4422134916787e-15)
(-0.0713627778224943 0.000303370294600918 -7.74878370151058e-20)
(-0.0681032237766204 0.000280434677807883 -7.88331023558427e-20)
(-0.0646083106714852 0.000257947919271162 7.92921086266566e-20)
(-0.0609285582703135 0.000236164691907692 -8.07576492346451e-20)
(-0.0571098858946778 0.000215273028484735 8.13455247249164e-20)
(-0.0531936320779329 0.000195406983141942 0)
(-0.0492166764930009 0.000176650997436577 -7.23147438564237e-15)
(-0.0452115668000517 0.000159050450644673 -7.37925697134423e-15)
(-0.0412067414538727 0.000142617525360403 -8.61562612766954e-20)
(-0.0372267725805834 0.000127339239010705 4.35819612305457e-20)
(-0.0332926578093117 0.000113182463042408 -4.43931536185578e-20)
(-0.0294221225274626 0.000100099789267127 8.98239393140663e-20)
(-0.0256299398354516 8.80332240365277e-05 -7.57171329481472e-15)
(-0.0219282482655217 7.69183009899067e-05 -7.70140542960151e-15)
(-0.0183268562310038 6.66860064960306e-05 -2.33420387158504e-20)
(-0.0148335512244497 5.72707260849438e-05 0)
(-0.0114543521866461 4.85878716368508e-05 1.39698830015036e-30)
(-0.00819380568099869 4.03486201259296e-05 -1.21709854821534e-20)
(-0.00505518971594863 3.18971033636669e-05 1.84421829251757e-20)
(-0.00204076706039016 2.34768441008815e-05 -6.2152700900856e-21)
(0.000848004014213039 1.59769837294785e-05 0)
(0.0036104583142215 9.38865992745853e-06 1.25349178389436e-20)
(0.00624640508075542 3.3392949657542e-06 -1.24774971424882e-20)
(0.00875595431157547 -2.29724808380302e-06 1.45207465158949e-30)
(0.0111395131518623 -7.57540416082762e-06 0)
(0.013397604132904 -1.25500988455472e-05 -2.49095217535166e-20)
(0.0155307787688565 -1.72722631475694e-05 2.48278313011249e-20)
(0.0175395100740065 -2.17899770994038e-05 0)
(0.0194241067956592 -2.61489462000094e-05 0)
(0.021184611334633 -3.03926679897791e-05 0)
(0.0228207195399516 -3.45639295159103e-05 0)
(0.0243316592821169 -3.87038531045194e-05 0)
(0.0257161183141409 -4.28552780524746e-05 8.30130080846265e-15)
(0.0269720616444962 -4.70590773394174e-05 1.6564294899654e-14)
(0.0280966892801966 -5.13624141213841e-05 8.26121999068665e-15)
(0.0290860986503821 -5.58075137423792e-05 -1.99338567029164e-19)
(0.0299353590535226 -6.04532609404553e-05 9.97487903061029e-20)
(0.030637781907885 -6.534274473899e-05 -1.00139150655298e-19)
(0.0311854107235316 -7.05621471676904e-05 1.0020458810095e-19)
(0.0315672090385643 -7.61505376719766e-05 8.41942995819652e-15)
(0.0317713255131217 -8.22713981821731e-05 8.36498029185475e-15)
(0.0317798914899003 -8.89380318854982e-05 -1.01217682263852e-19)
(0.0315777908008387 -9.64229538374836e-05 1.01822946525152e-19)
(0.0311364800550484 -0.000104580318788647 -2.04416820807348e-19)
(0.030429340404819 -0.000114072013947209 1.02666713060942e-19)
(0.0293995135224915 -0.000124273644085523 -2.07060882889402e-19)
(0.0280095753440756 -0.000136927669176397 4.16789950883758e-19)
(0.0261480651164635 -0.000150042064083052 -2.0999414702827e-19)
(0.0237751910032938 -0.000168331141405312 -2.12690881897744e-19)
(0.0206401164351831 -0.000185252099741864 4.30217313195565e-19)
(0.0167692670269046 -0.000213470289543985 0)
(0.0113154399119405 -0.000226894922240364 -2.71848454590777e-23)
(0.00435866678796636 -4.3256667653432e-06 0)
(0.00340684269716591 0.000424418816981693 2.29429025972526e-19)
(0.0059095838031203 0.00157444788740655 -5.80922008866751e-17)
(0.0082366470852522 0.00297839764548528 -6.12388998584258e-22)
(0.0115052072070758 0.00507589418274274 -1.07546905393335e-16)
(0.0152034957596931 0.00780490080977809 -1.03610900570876e-16)
(0.0195540393664331 0.0113315984018833 9.84556132115288e-17)
(0.0250274746946736 0.0158666165494284 -9.33721732966542e-17)
(0.0312538753049562 0.0211081320525003 8.86317179591256e-17)
(0.0379588789133044 0.0267595383646175 8.42805165847384e-17)
(0.0450318022944937 0.0326133662789352 0)
(0.0524798605092263 0.038492053576605 0)
(0.0591962665935218 0.0436214800097669 -7.36826632213387e-17)
(0.064777071494221 0.048075641551973 -7.06614211670775e-17)
(0.0701376804954894 0.0526151534729094 -6.75426896181003e-17)
(0.0757408212307669 0.0576140231377713 -6.42560805203527e-17)
(0.082162130705721 0.0635163460394647 -6.07555394925375e-17)
(0.0905949669150607 0.0712080005038115 5.684930644578e-17)
(0.104361580035131 0.0824173981813646 5.25719915590187e-17)
(0.124460738612102 0.095998691257511 -4.84194531374317e-17)
(0.150184034581702 0.109826148000819 4.42964869316788e-17)
(0.186685999740426 0.124008872189242 4.01102410426487e-17)
(0.235058064334996 0.133003504978732 -3.57430674280719e-17)
(0.289316531635287 0.123285073220911 0)
(0.278658970852605 0.0720881160971861 1.4298029938837e-17)
(0.195905029781433 0.0227165615482904 0)
(0.108796102348249 0.00206653045823271 -2.07125047017775e-18)
(0.0821112773031005 -0.000598852116199556 0)
(0.330050090055833 -0.00164822666834109 0)
(0.360687429655732 -0.0085637119890054 -7.08349077812195e-22)
(0.294142382497512 -0.0304184219271971 -4.84474415443399e-21)
(0.0977957852135797 -0.0213494194360212 1.69482899784594e-14)
(-0.074157775183684 0.0377937116915325 1.89729958603562e-14)
(-0.0925540146574677 0.0575320637706838 -5.88211862920298e-17)
(-0.0670003555662237 0.0484965177658532 1.82151184570879e-23)
(-0.0536347713802125 0.0426607467327219 -6.2064821017118e-17)
(-0.0451750883850608 0.0379101094233003 1.84318012643774e-14)
(-0.0419963790339162 0.0357230635199863 1.92215484162323e-14)
(-0.0399670578170468 0.0334516145136673 -3.53845429262054e-20)
(-0.0397991000510703 0.0325524426765797 3.71780870967064e-20)
(-0.0405074166365867 0.0324889946804675 -3.85869151435653e-20)
(-0.0425394106991983 0.0336322427679625 -8.15539500728873e-17)
(-0.046265994773565 0.0362357206674867 1.66264707143736e-16)
(-0.0517258229425517 0.0402983588631602 -8.17903082549331e-20)
(-0.05826754431696 0.04507297460639 8.40613802373392e-17)
(-0.0653952197927078 0.0495290566646909 -8.40850980216124e-17)
(-0.0729639370862745 0.0531450481889672 1.62780568545633e-19)
(-0.0804954289799362 0.0551828169807638 -1.61867446421947e-19)
(-0.0875030974331003 0.0549539298762724 -8.18725247530756e-17)
(-0.0941721454356051 0.0523893260812399 8.09748498232091e-17)
(-0.10075922735183 0.0480428349972493 7.9699494380896e-17)
(-0.106757771793228 0.042008864609064 -1.52136860910497e-19)
(-0.111818302887604 0.0343446593959389 3.81760744963486e-17)
(-0.116073302423861 0.0253537837961459 -3.74642856372549e-17)
(-0.120583901261961 0.0154563175819925 5.32395651648554e-15)
(-0.133020630622853 0.00638305914043935 4.92953910493047e-15)
(-0.153766255458656 0.00215508859135561 -2.96555344930652e-23)
(-0.168455483968507 0.00140717501901147 -4.17785665952505e-31)
(-0.175668068189727 0.000832420370720897 0)
(-0.179321300037514 0.000480281667560634 4.71010530295234e-15)
(-0.180278872164708 0.000231680821777546 4.55984127603822e-15)
(-0.179326963867944 3.8526691206849e-05 2.09244856115849e-19)
(-0.176830474118609 -0.00011762277288104 -1.03080976432358e-19)
(-0.173099947742492 -0.000247370807835293 -1.0292631426327e-19)
(-0.168334916943695 -0.000356695864190108 1.01916303477581e-19)
(-0.162704988269448 -0.0004497990412936 7.43759939325313e-31)
(-0.156347733460176 -0.000528801038881795 -4.29233793626847e-15)
(-0.149384892278038 -0.000595220370713098 -4.26965277438236e-15)
(-0.141923582045447 -0.000650237084853895 0)
(-0.134060122668831 -0.000694848981313384 5.26211388440575e-20)
(-0.125880999667962 -0.000729991884520969 3.15479867262069e-22)
(-0.117463922961505 -0.000756545543313497 -5.36385886789835e-20)
(-0.108878462946327 -0.000775368695342378 -5.47492562118379e-20)
(-0.100186571624786 -0.00078728335176924 1.10963013621454e-19)
(-0.0914431102592564 -0.000793080503712526 4.90281722630241e-15)
(-0.0826963145606476 -0.000793506980541546 4.95970363265706e-15)
(-0.0739883073408277 -0.000789263848172928 5.84470489715166e-20)
(-0.0653555847557143 -0.000780999088029238 0)
(-0.0568295195626633 -0.000769307186736344 -3.05666008269561e-20)
(-0.0484368461951225 -0.00075472595957359 3.10817582265519e-20)
(-0.0402001421706868 -0.000737738164773782 5.31127405489724e-15)
(-0.0321382887968712 -0.000718771600298102 5.4095518968809e-15)
(-0.0242668999076385 -0.000698202481792377 -1.66629494524239e-20)
(-0.0165987525637344 -0.000676357986592746 -6.02772821814716e-23)
(-0.00914414903997629 -0.000653683763549315 -5.89751948235472e-23)
(-0.00191135287723674 -0.000630487456957696 1.77281850122231e-20)
(0.00509326574777363 -0.000606496060289039 -4.48016761722151e-21)
(0.0118648970610026 -0.000581859441389969 4.45866153785042e-21)
(0.0183997508702098 -0.000556838429598675 -4.46611797219105e-21)
(0.0246950625824841 -0.000531487994494152 4.45037084356594e-21)
(0.0307488606649101 -0.000506088240917373 1.78446677015454e-20)
(0.0365596473420841 -0.000480730718008581 -1.78022234800629e-20)
(0.0421263059547504 -0.000455444490032554 0)
(0.0474478548828956 -0.000430245433841599 0)
(0.0525232993992087 -0.000405129918831896 0)
(0.0573514527700239 -0.000380076667029215 0)
(0.0619307784455753 -0.00035504706002603 0)
(0.0662592045602157 -0.000329984084123323 0)
(0.0703339593948767 -0.000304813586594461 0)
(0.0741513413276259 -0.000279439244139648 7.2612570935293e-20)
(0.077706542206027 -0.000253746273279542 -6.04712647585461e-15)
(0.0809933064546645 -0.000227588025382714 -1.21907991064041e-14)
(0.0840037559135211 -0.000200798069009236 -6.15035236374664e-15)
(0.0867277941711483 -0.000173155946999502 -1.48029996632561e-19)
(0.0891530192554575 -0.000144425434976744 -1.36603587047676e-22)
(0.0912635222480715 -0.000114265609040604 7.49827811090986e-20)
(0.0930402280613072 -8.23457016492592e-05 7.57359389740404e-20)
(0.0944581060839432 -4.81292584157088e-05 -6.32747449864891e-15)
(0.0954885963655276 -1.11554493309384e-05 -6.45865259974727e-15)
(0.0960896469489402 2.91470662940344e-05 7.79613080887411e-20)
(0.0962246252094332 7.30414476894538e-05 0)
(0.0958342347566293 0.000122965000089296 1.60015895161568e-19)
(0.0948497506984931 0.000179813149693411 -1.61953029446746e-19)
(0.0931512557522729 0.000248027575966321 -1.64907094450853e-19)
(0.0906319034402154 0.000327244385355637 1.67666120401825e-19)
(0.0870606841206107 0.000427806627347084 0)
(0.0822760582509088 0.000546211642272946 0)
(0.0757641433492862 0.000709598317973625 1.82147068964993e-19)
(0.0673147980343114 0.000915700236348205 -5.13464490290807e-22)
(0.0552467595656716 0.00122815324604605 2.00017474611583e-19)
(0.0398426056177817 0.00233940651106329 0)
(0.0352016356829642 0.00424174884080139 -1.6597272027099e-22)
(0.0383948125308126 0.00795964841868812 0)
(0.0429832287748932 0.0125155072141739 5.14226697115206e-17)
(0.0493131952093335 0.0185174656478579 -9.83742713364948e-17)
(0.0568088765845912 0.025943805727348 -1.83748380685959e-19)
(0.0656982843434364 0.0351143068985002 1.74642058676117e-19)
(0.0767862837764408 0.0464179758745781 1.6600658128106e-19)
(0.0896537041096095 0.0593408286122357 -8.11085606041693e-17)
(0.103915813029348 0.0732853633295805 -1.61885580418107e-19)
(0.11932793696642 0.0878060128363252 -7.38858640451797e-17)
(0.135901177225755 0.102517831832981 0)
(0.151981818545697 0.116065079791942 0)
(0.16647539627355 0.128450395479093 6.72850966642555e-17)
(0.180240972072807 0.141021927376506 6.54012426727174e-17)
(0.194170959827136 0.154669240148882 6.33674962096801e-17)
(0.209399694276344 0.170385795739701 3.91219723026101e-20)
(0.228034025847548 0.189976300019837 -5.77722444010857e-17)
(0.25592715440805 0.216745842471023 -1.07252361577129e-16)
(0.296682473792409 0.248525976896977 0)
(0.350565626931737 0.280361031058926 0)
(0.424908475272999 0.310282429057346 -3.85831299690365e-17)
(0.522306566974674 0.326137879881036 -3.2856327140819e-17)
(0.637989784613715 0.303005237674811 2.84428143706117e-17)
(0.677165633607736 0.199361344958526 -1.25368020910517e-17)
(0.583207157385417 0.0823005324973004 0)
(0.418965923262505 0.0161031076766428 0)
(0.328134074363612 -0.000146071545956404 0)
(0.519475536831841 -0.00159536124108479 0)
(0.534233350426514 -0.0117229838702503 1.50346484889005e-18)
(0.473100184782145 -0.0437271009873377 0)
(0.239021772888478 -0.0470344638104745 -1.10284104862835e-14)
(-0.0478676101484704 0.0332534306192463 -1.47668837843014e-14)
(-0.12232180257311 0.0763784711733628 5.38189856824558e-17)
(-0.0964033529911248 0.0686479127754198 0)
(-0.0795455825858196 0.0624677848614945 6.89768119574525e-21)
(-0.0687049994667177 0.0571892827322017 -6.03596394127215e-17)
(-0.0647073812855874 0.0547510329217368 6.38936671328568e-17)
(-0.0625281642087822 0.0521684689813836 8.75982544272078e-23)
(-0.0628975602195812 0.0513846393684345 -3.38560025424866e-20)
(-0.0646524967246988 0.0518951048151136 0)
(-0.0683482544180175 0.0542096174933247 7.14807882828683e-17)
(-0.0743471453798531 0.0585443945468768 -9.02074868549447e-22)
(-0.0824037759739463 0.0646309877413598 -6.71932020985347e-20)
(-0.0914980834698405 0.0712637528763072 6.45513210100272e-20)
(-0.10091997161174 0.0769258279263686 0)
(-0.110321283113516 0.0808041582721821 0)
(-0.119130272540313 0.0820352888943256 0)
(-0.127005331845461 0.0800483577126665 0)
(-0.134317205258894 0.0749767524946603 -5.05645176259848e-17)
(-0.141291741795309 0.067609461869109 -4.75715913427358e-17)
(-0.147549277823021 0.0582815748492706 8.83168252226019e-20)
(-0.153052747948475 0.0472483733474185 -8.8367206748746e-20)
(-0.158348118611209 0.0349885988844414 4.11769056032232e-17)
(-0.165000365619129 0.0219669948890122 1.95434627479646e-17)
(-0.178493330324573 0.00981135574709043 7.05779649512102e-20)
(-0.195768950279359 0.00385845330322199 1.56710763644138e-23)
(-0.206161704330339 0.00232769592167754 0)
(-0.210451437536296 0.00122873429760026 0)
(-0.211628784506912 0.000555064290062583 0)
(-0.210354190373126 7.08973978553071e-05 0)
(-0.207319073191517 -0.000301731197414772 0)
(-0.202855657875521 -0.000601811838796091 0)
(-0.197229128669133 -0.000850088681951905 0)
(-0.190620161680607 -0.00105860735841654 0)
(-0.183189886935316 -0.0012347831280024 0)
(-0.175070238588515 -0.00138314803040607 2.45436297073425e-20)
(-0.166378832328112 -0.00150685180978884 -2.43357331941637e-20)
(-0.157219637930964 -0.00160841355784714 2.44976747906632e-20)
(-0.147686379299755 -0.00168993265702182 -2.44128674410646e-20)
(-0.137863357749256 -0.00175333565572722 0)
(-0.127826426711024 -0.0018003976617238 0)
(-0.117643576249376 -0.00183281051046943 2.50370011106481e-20)
(-0.107375432550189 -0.00185216883304155 1.3641543444225e-22)
(-0.0970757585755432 -0.00185998331468717 -2.54174569711437e-20)
(-0.0867919036562075 -0.00185766647530944 0)
(-0.0765652947833433 -0.00184653243095103 0)
(-0.0664319054871979 -0.00182778927707721 0)
(-0.0564227394596916 -0.00180253998884976 0)
(-0.0465642985375756 -0.00177177987220833 0)
(-0.0368790463928119 -0.00173640018005344 1.39052826879467e-20)
(-0.0273858538995926 -0.00169719030010488 -1.40826260970539e-20)
(-0.0181004134353554 -0.00165484410578402 -7.19014537187048e-21)
(-0.00903566304818279 -0.00160998365977708 -2.5888054030832e-23)
(-0.000202119822140554 -0.00156309714203611 -2.51268029619276e-23)
(0.00839172914397201 -0.00151442554518668 7.46196718696735e-21)
(0.0167391573723738 -0.00146405019980654 0)
(0.0248348798338725 -0.00141253638284819 0)
(0.0326747179830191 -0.00136045944662897 0)
(0.0402555168295344 -0.00130799070372731 0)
(0.0475748086665366 -0.00125529242422652 7.70897557464726e-21)
(0.0546305723777502 -0.00120244900217533 1.96282865449656e-23)
(0.0614211217569139 -0.00114950590119502 -7.79944933425794e-21)
(0.0679448664547806 -0.0010964762642357 0)
(0.074200153848652 -0.00104333527098465 -1.5878172878554e-20)
(0.0801850848444157 -0.000990022234347192 1.5972002082453e-20)
(0.0858973465194865 -0.000936440235928293 -1.61422251236655e-20)
(0.0913340186591677 -0.000882453842996246 -3.38246874760439e-23)
(0.0964913940825815 -0.000827888760518322 -1.64644587064913e-20)
(0.101364739119709 -0.000772523643135557 3.3106573050107e-20)
(0.105948091112326 -0.000716090887320402 0)
(0.110233910484599 -0.000658256690278268 0)
(0.114212856394071 -0.000598628772329165 3.42008946254366e-20)
(0.117873199601731 -0.000536708760013146 6.39736883276915e-23)
(0.121200629187679 -0.000471925554998013 -3.49261180188798e-20)
(0.124177116881924 -0.000403518128860685 -3.5424977655083e-20)
(0.126780997435548 -0.000330648461139982 3.58267102161609e-20)
(0.128984461085967 -0.000252134032900684 -3.63972080298037e-20)
(0.130754956991288 -0.000166679559550979 -6.78703812267294e-23)
(0.13204880205895 -7.2711250569947e-05 3.74844075429004e-20)
(0.132818368139625 3.09850469723311e-05 7.63977024617682e-20)
(0.132995442187011 0.000148821648475705 1.49945098694995e-22)
(0.132502582275946 0.000284292070200921 -7.89169892103812e-20)
(0.131214036090839 0.000445790218839872 0)
(0.129004537176616 0.000637127303702953 -8.24759140093569e-20)
(0.125633740135051 0.00087671833988019 8.44188492239455e-20)
(0.120898409968809 0.0011704235791337 8.71736576291986e-20)
(0.114268277633697 0.00156391089238333 -9.00841540359513e-20)
(0.105431564399727 0.00209147290521292 0)
(0.0928040945660664 0.00283923316263008 0)
(0.0760940846605856 0.00494566505347783 3.42921022404619e-18)
(0.0685502520986698 0.00857445362609996 2.77956643563699e-17)
(0.0697417251439668 0.0143108264256967 1.03974463725842e-19)
(0.0737890564526777 0.021109408636111 -2.53295768544734e-17)
(0.0802299773751171 0.029529460785278 1.54141279266534e-21)
(0.0884305923605047 0.0395716520767904 0)
(0.0985194093768366 0.0515859048261978 0)
(0.111257553813999 0.0658861687733605 8.36857457682421e-20)
(0.126416951596973 0.0820193489350403 -8.05731477229806e-20)
(0.1436259567988 0.0993884600064082 6.86347689580618e-20)
(0.162615151585552 0.117545486398193 3.87027729596098e-17)
(0.183351412931138 0.136060147384042 -3.77835759277811e-17)
(0.204375645360615 0.153836928594645 0)
(0.224366912214811 0.170944218677926 -3.58626430150416e-20)
(0.243888117695092 0.188661618585093 3.57367190505785e-20)
(0.263842522917709 0.207934474533386 0)
(0.285453139069572 0.229833694183814 3.53893773181779e-17)
(0.310889834272165 0.256097759990591 0)
(0.346143069082544 0.289376014803368 3.21205454239597e-17)
(0.396166107874361 0.327080945896861 -3.53998513356155e-21)
(0.461628053003329 0.363290769458816 3.33588861560505e-21)
(0.548660868004556 0.393394204645539 2.32581238119411e-17)
(0.65917920518363 0.402922085688883 1.95717720334311e-17)
(0.78952346163271 0.366551323567381 -3.36528234102004e-17)
(0.865125039724095 0.251441432683423 7.7439882482634e-18)
(0.817097911071578 0.118310636982461 0)
(0.669183837986345 0.0311555113322469 1.17229930654545e-18)
(0.551826265635709 0.00346696668738806 -6.67836407664081e-22)
(0.640161665881545 -0.000473061511044465 4.65263307840716e-22)
(0.638958066833524 -0.0132164910804881 -4.60886994034837e-22)
(0.589788197088468 -0.0503540321067267 3.87481039717568e-18)
(0.370891919973188 -0.0678457804571829 0)
(0.0248666322849579 0.0124856366157022 -3.06541802084296e-17)
(-0.123626598896162 0.0797850716497393 -4.20003175952221e-17)
(-0.111675991424652 0.0782753601965036 0)
(-0.0957128308554357 0.0741220827558756 0)
(-0.0849517503285346 0.0701084934902615 4.81018464661677e-17)
(-0.0812291487053434 0.0683816445257996 -5.13428410266359e-17)
(-0.079628222158417 0.0662609543880756 5.34418658830239e-17)
(-0.0807628805149689 0.0659553168503364 -2.66623959129643e-20)
(-0.0834747416021253 0.0671195234407641 0)
(-0.0882516162352216 0.0702797569627327 -5.38652273777816e-17)
(-0.0952560819372898 0.0754537003072954 -5.15838588005605e-17)
(-0.103941429601843 0.0820784965809106 4.73022159758441e-20)
(-0.113146578444923 0.0887261520554443 -4.49691788321805e-17)
(-0.122230887063208 0.0937809985615367 -4.12357291958469e-17)
(-0.13091215932665 0.0964770613290121 3.78603242618006e-17)
(-0.138829482837021 0.0961528593390891 -3.4652435764218e-17)
(-0.145893473611345 0.0924827691680758 0)
(-0.152575396465957 0.0856993692257325 2.95134185262827e-17)
(-0.159037941980428 0.0766202662486796 5.37588966001463e-20)
(-0.164988574137306 0.0656633921289435 -2.58787064210849e-17)
(-0.170511290633045 0.0531386726634676 -1.22221633464807e-17)
(-0.176165733824839 0.0395479520903681 -1.17921607601461e-17)
(-0.183188638068349 0.0253291290304422 -5.51582214347962e-18)
(-0.195463581953015 0.0119372309195879 1.2807161528286e-18)
(-0.209187986503271 0.00510805422568159 -8.85964058853111e-24)
(-0.216783664706987 0.00293631404584286 -3.37285285515848e-20)
(-0.219503353638948 0.00141801023913944 -3.19022978248235e-20)
(-0.219471001037075 0.000472270503180093 0)
(-0.21720796729379 -0.000217818706975242 0)
(-0.213307518511612 -0.000749160215634509 -2.88531669529143e-20)
(-0.208048986715553 -0.00117889600192123 2.79720266149052e-20)
(-0.20167993777778 -0.00153516713607304 -2.76015668286057e-20)
(-0.194369185262348 -0.00183454429384117 2.70213413546765e-20)
(-0.186268466930199 -0.00208689936233036 0)
(-0.177503760154107 -0.00229883301832985 0)
(-0.168188125257854 -0.00247489166822009 0)
(-0.158422113408366 -0.00261877812503344 0)
(-0.148296693479129 -0.00273358000830151 1.32342463617413e-20)
(-0.137893940878517 -0.00282212491086674 -1.31783729963792e-20)
(-0.127287876549655 -0.00288701204423962 -1.33030422019179e-20)
(-0.116544979466272 -0.00293070524391554 2.66665146268536e-20)
(-0.1057246321719 -0.0029555203280363 -1.33847988114661e-20)
(-0.0948795785223399 -0.00296364240468818 0)
(-0.0840563421512143 -0.00295711056249672 0)
(-0.0732956886284964 -0.00293781746934728 0)
(-0.0626330717182013 -0.00290750139332235 0)
(-0.0520990958392813 -0.00286774756345658 -7.06416054112185e-21)
(-0.041719966638193 -0.00281998621006666 -1.60492404690169e-15)
(-0.0315179383585068 -0.00276549759960991 -1.63298636665283e-15)
(-0.0215117455691088 -0.00270541629365552 -7.31221711443996e-21)
(-0.0117170067663732 -0.00264074014470708 -7.44302580565789e-21)
(-0.0021466254218892 -0.00257234372615525 7.51544690687494e-21)
(0.00718886138277912 -0.00250087442966402 0)
(0.0162808950951204 -0.00242687646548771 0)
(0.0251226541329874 -0.00235096231683753 0)
(0.0337087634130343 -0.00227369127893431 0)
(0.0420349458853834 -0.00219542519395066 0)
(0.0500979067492276 -0.00211641933312701 0)
(0.0578950223436893 -0.00203689482631632 0)
(0.06542411420261 -0.00195697955487217 0)
(0.0726833245017277 -0.0018767420086459 0)
(0.0796708866651959 -0.00179619844988531 0)
(0.0863849644724582 -0.00171530899524548 -8.31321989557756e-21)
(0.0928234693614424 -0.00163397959674714 1.89528041347649e-15)
(0.0989838922855745 -0.00155206113460753 1.90682365025221e-15)
(0.104863112404066 -0.00146934615691491 -8.56068355997308e-21)
(0.110457215496052 -0.00138556672965652 1.73469073164375e-20)
(0.115761259629818 -0.00130038389917955 -1.75092686007668e-20)
(0.120769067529061 -0.0012133847588114 1.77490420211481e-20)
(0.125472892572926 -0.00112405808991926 -1.79285658114068e-20)
(0.129863179969038 -0.00103179516983977 0)
(0.133928017187276 -0.000935834433660094 1.8420548559476e-20)
(0.137652898126446 -0.00083528224009568 -1.8632973281622e-20)
(0.141019689706626 -0.000728982710322662 0)
(0.144006580605747 -0.000615606798067828 0)
(0.146585878395257 -0.000493365505196558 0)
(0.148724831817708 -0.000360211035404488 0)
(0.15038089191973 -0.000213654356255272 0)
(0.151502801668034 -5.12665810868584e-05 0)
(0.152023835346999 0.000133141036730673 0)
(0.151866352474216 0.000345477115412426 -4.26456389714235e-20)
(0.150910665522075 0.000597353788961598 8.69807147880523e-20)
(0.149032612821743 0.000897141155035536 -8.89940068156232e-20)
(0.14600709955226 0.00126961581013641 4.56115334241417e-20)
(0.141631945589405 0.00173118317143237 0)
(0.135425128190487 0.00234083180217615 0)
(0.127075614632415 0.00316736645698036 0)
(0.115309098060677 0.00432181087371138 -5.41027503143666e-20)
(0.0994769532927697 0.00709869813872334 -3.62186561261497e-18)
(0.0907063900492152 0.0117503750141607 -7.37128707901679e-18)
(0.0902939381133386 0.0185238632215649 1.40998600080839e-17)
(0.0934030881790161 0.0264591663725677 5.23983479795399e-20)
(0.099338700695471 0.0360649061919343 5.10789182419389e-17)
(0.107387067401955 0.0473252111470711 -4.79349607967887e-20)
(0.117592686016325 0.060570125930314 4.59261061153967e-20)
(0.130603806476659 0.0760200846930416 2.26255915248518e-17)
(0.146292180028019 0.0932762658827715 -2.17925553072054e-17)
(0.164313042518051 0.111788218657805 -2.11744568871066e-17)
(0.18440507286713 0.131142455266995 -4.01301217982752e-20)
(0.206487549918541 0.150915427200015 4.87474313840854e-20)
(0.229298419005681 0.170270324209056 -1.94577758845606e-20)
(0.251548974088461 0.189378497020632 3.88910575377905e-20)
(0.273665899783723 0.209426531976295 -1.98902436852502e-17)
(0.296493129930809 0.231314370364809 1.92396887953056e-20)
(0.321233400086518 0.256076344239376 -1.96146113092216e-17)
(0.349965817592276 0.285221940825585 -9.23197757842435e-21)
(0.388221364333818 0.320556641494687 8.91036096460513e-21)
(0.441229248172439 0.359161950858397 2.00265177534636e-21)
(0.509814888611312 0.394887710047102 -1.89488897823603e-21)
(0.599063182663581 0.421899112922313 0)
(0.710126473988973 0.425320590203066 0)
(0.839367932396247 0.38140653796334 -2.63466406198151e-20)
(0.926108018649973 0.264817388537053 -4.55674422755641e-18)
(0.911281417755325 0.132376069388583 0)
(0.802330441777468 0.0403512692152833 -7.367122430196e-19)
(0.69011874333653 0.00750553964485463 0)
(0.715363796814782 0.00125802502161986 0)
(0.704497205147447 -0.0135290468094691 6.4432200948338e-19)
(0.662881472252479 -0.0523531564137956 5.81099269380195e-21)
(0.474922493865345 -0.0802927644238103 1.72984523742903e-21)
(0.115920857344701 -0.0127784356076397 2.11057203158363e-17)
(-0.100883599997381 0.0719532766091117 2.9237844464619e-17)
(-0.114385584196081 0.0796496726516297 0)
(-0.102378336763785 0.0783271996408514 0)
(-0.0930001097422652 0.0762161344735168 3.29862346375957e-17)
(-0.0901867650160695 0.0756835595174255 3.54610425422381e-17)
(-0.0894907455449659 0.0744150779841458 -3.68635215608563e-17)
(-0.0913620419174808 0.0747167727522456 0)
(-0.0947168044019108 0.0764070712145492 -3.7482264977731e-17)
(-0.0999265910657942 0.079990456457389 5.85091245508788e-22)
(-0.107003864916456 0.0853234874790521 -3.44096126136354e-17)
(-0.115328187429125 0.091732241315756 3.1807489884562e-17)
(-0.123860781259166 0.097828257083257 2.88352259680525e-22)
(-0.132159514613193 0.102102181041373 2.63599304585199e-17)
(-0.140048165001499 0.103884359573091 -2.39344859701708e-17)
(-0.14730978956219 0.102645991614617 4.57019283884268e-20)
(-0.153936727902771 0.0981542938688168 -3.91584379362742e-20)
(-0.160356681988119 0.0906168562810405 0)
(-0.166656240065642 0.0808023279114835 1.74117164067496e-17)
(-0.172581297369527 0.0691545149119429 1.64360359596454e-17)
(-0.178231519220033 0.0560082323722467 0)
(-0.184079595268328 0.0418723703013734 -7.49607126161215e-18)
(-0.19101054052191 0.0272169106369784 2.78940795017827e-20)
(-0.201925574678854 0.0134146604305513 -8.51600372231662e-19)
(-0.213214215630218 0.00611599767524247 2.85886729718487e-24)
(-0.219187108523583 0.00339957697909135 -2.17322612710412e-20)