/*--------------------------------*- C++ -*----------------------------------*\
  =========                 |
  \\      /  F ield         | OpenFOAM: The Open Source CFD Toolbox
   \\    /   O peration     | Website:  https://openfoam.org
    \\  /    A nd           | Version:  7
     \\/     M anipulation  |
\*---------------------------------------------------------------------------*/
FoamFile
{
    version     2.0;
    format      ascii;
    class       volVectorField;
    location    "7000";
    object      wallShearStress;
}
// * * * * * * * * * * * * * * * * * * * * * * * * * * * * * * * * * * * * * //

dimensions      [0 2 -2 0 0 0 0];

internalField   uniform (0 0 0);

boundaryField
{
    bottomWall
    {
        type            calculated;
        value           nonuniform List<vector> 
120
(
(-0.00495862583579787 4.16454924225188e-05 5.59137358198466e-23)
(-0.00601333741167888 0.00016626660128885 1.15161320398936e-19)
(-0.00422495400645683 0.000516134390335406 5.64237288394698e-37)
(-0.000238926890851556 0.000201571357111035 1.00119585187135e-18)
(0.00222973528918013 -0.000847688887105797 1.2293156180288e-22)
(0.0020962077650582 -0.00113608071811691 4.43126226944941e-22)
(0.00143034841475308 -0.000929555447129915 2.21213546474699e-18)
(0.0010955718960862 -0.000791586972119273 -2.24154500285274e-18)
(0.000866185370507642 -0.000670922706545351 6.35001219881453e-16)
(0.000757156366839949 -0.000599931389793398 6.36735374554334e-16)
(0.000665840553541923 -0.000526817507079062 -5.57276769533648e-22)
(0.000617538149502112 -0.000482882507539481 1.10982986702311e-21)
(0.000587048102792089 -0.000455483390121739 -1.11167544740088e-21)
(0.0005795370428411 -0.000447819085723357 2.27052912597564e-18)
(0.00059890494342672 -0.000461370993229919 2.26702539950209e-18)
(0.000646279476598472 -0.000495028898204447 2.20304830555058e-21)
(0.000708834344022053 -0.000536834276288893 2.23740353902563e-18)
(0.000773601246272921 -0.000571144853724122 -4.45092882835045e-18)
(0.000838368858292582 -0.000592789003604549 2.20442339071137e-18)
(0.000895440310770881 -0.00059453545828903 2.19793355065254e-18)
(0.000934600353497994 -0.000570031555875159 -2.17788107652746e-18)
(0.000959452714212019 -0.000522182128941234 2.15572060342477e-18)
(0.000983040402373709 -0.000462683435082322 8.484045143317e-24)
(0.00100268039988142 -0.000394080600431205 -2.1049520788123e-18)
(0.00101547640580428 -0.000316531219393789 1.80555932286303e-35)
(0.00102230618263302 -0.000231250812385669 9.62964972193618e-35)
(0.000998719027111266 -0.000137806872966487 1.49348529975768e-16)
(0.00109015302602047 -5.76420477046602e-05 1.49023549881319e-16)
(0.00139068999321956 -2.41818558186956e-05 -4.62937800118155e-25)
(0.00164989856272694 -2.18700400120151e-05 -1.34643488819808e-32)
(0.00179799927454149 -1.89968356075865e-05 -0)
(0.00189534381708621 -1.72773671528549e-05 1.55451970262332e-16)
(0.00195339747759319 -1.60061502825084e-05 1.56966480355719e-16)
(0.0019837827553266 -1.48439395360793e-05 0)
(0.00199105431014507 -1.37085618079967e-05 -1.80548294826892e-53)
(0.00197934439643124 -1.25860916233687e-05 -1.17208741091272e-51)
(0.0019516333845548 -1.14922853153456e-05 -0)
(0.00191024208636484 -1.04077528722246e-05 1.83169157145526e-21)
(0.0018570815374363 -9.34290206263118e-06 -1.52468083944229e-16)
(0.00179389066223051 -8.30830829391373e-06 -1.5547200268001e-16)
(0.00172223874534755 -7.3142535666792e-06 1.87000374025677e-21)
(0.00164357496099645 -6.36959618005109e-06 1.90247293412504e-21)
(0.00155923087209482 -5.4809127886407e-06 -1.91355022067695e-21)
(0.00147042576000017 -4.65276232939308e-06 1.94892186210164e-21)
(0.00137826787561987 -3.88758755004582e-06 -1.96310917429458e-21)
(0.0012837549107824 -3.18614992946372e-06 -0)
(0.00118777694198862 -2.54771228757156e-06 1.74520633513935e-16)
(0.00109111949076725 -1.97041790849843e-06 1.78087154919493e-16)
(0.000994468902212652 -1.4515248741526e-06 2.07921421095151e-21)
(0.000898418206874048 -9.87691621543886e-07 -1.05176646223355e-21)
(0.0008034741648618 -5.75161780511366e-07 1.07134425442366e-21)
(0.000710064561012637 -2.09963989262301e-07 -2.16773038479341e-21)
(0.000618545927452544 1.11963159710782e-07 1.82731722499544e-16)
(0.00052921121220835 3.94644874003847e-07 1.858615815276e-16)
(0.000442297124280856 6.42011553398682e-07 5.63316474423987e-22)
(0.000357991609904349 8.57663557415311e-07 -1.95265223525259e-41)
(0.000276440056895717 1.04559622597753e-06 -3.3714131079934e-32)
(0.000197752525063625 1.21618021610978e-06 2.9372437159364e-22)
(0.000122007809444032 1.39141718464669e-06 -4.45068246717696e-22)
(4.92596072241615e-05 1.56418620806438e-06 1.49994169566735e-22)
(-2.0456740091337e-05 1.70650461446346e-06 0)
(-8.71244355823114e-05 1.81915563130156e-06 -3.02507517878981e-22)
(-0.000150738806504827 1.9144325173006e-06 3.01121773175507e-22)
(-0.000211302694973616 1.9966289965634e-06 -3.50434750849807e-32)
(-0.000268825968674479 2.06765875611386e-06 -0)
(-0.000323321240020724 2.12934589740281e-06 6.01146573346762e-22)
(-0.000374801822844314 2.18330980023021e-06 -5.99175121958787e-22)
(-0.000423279135569898 2.23100217077992e-06 -0)
(-0.000468760631956568 2.27372449560867e-06 0)
(-0.000511247336991559 2.312635587071e-06 0)
(-0.0005507319119409 2.34879216578602e-06 0)
(-0.000587195722824203 2.38312132553759e-06 0)
(-0.000620607101079686 2.41650529974455e-06 -2.00337861700682e-16)
(-0.000650916933317158 2.4496746840499e-06 -3.99751116017379e-16)
(-0.000678057645970652 2.48341322423413e-06 -1.99370437538482e-16)
(-0.000701935050638661 2.51824238458837e-06 4.81068486254411e-21)
(-0.000722430153244457 2.55496219255765e-06 -2.40726136527115e-21)
(-0.000739381520870205 2.59377018882619e-06 2.41668279021447e-21)
(-0.000752597140384229 2.63573103739069e-06 -2.41826200466708e-21)
(-0.000761810621168814 2.68057144757792e-06 -2.03188138535599e-16)
(-0.000766735967748238 2.73086721533948e-06 -2.01873989127781e-16)
(-0.000766941888116027 2.78576351610982e-06 2.44271260912247e-21)
(-0.000762063674687324 2.84983467323925e-06 -2.45732075635626e-21)
(-0.000751412254822793 2.91386784886348e-06 4.93324716446889e-21)
(-0.000734345512818338 2.98803484183668e-06 -2.47768424035905e-21)
(-0.000709490638820767 3.04799829234612e-06 4.99706092148552e-21)
(-0.00067594527680045 3.12837076017763e-06 -1.0058515722742e-20)
(-0.000631017771330725 3.16412328013496e-06 5.06785200452864e-21)
(-0.000573750500665614 3.25218441585215e-06 5.13293813990619e-21)
(-0.000498085291218292 3.20804222593353e-06 -1.03825771240835e-20)
(-0.000404671399275211 3.20489961375009e-06 3.18103728183494e-26)
(-0.000273200846515168 2.42663644891098e-06 6.56052515530223e-25)
(-0.000105509445232293 -1.68317579946885e-06 -2.20405190779179e-39)
(-8.32329960390959e-05 -9.5270290748399e-06 -5.5426204733666e-21)
(-0.000145621240685658 -3.88542411284072e-05 1.42339731714414e-18)
(-0.000207313701670559 -7.59590020201776e-05 1.52212938210187e-23)
(-0.000298653744000185 -0.000132971005698435 2.78570077054136e-18)
(-0.000410244391659911 -0.000211381126856205 2.78998905595691e-18)
(-0.000552110823878522 -0.000318870309891175 -2.77179570443986e-18)
(-0.000742050008800641 -0.000465504304901377 2.75637839459621e-18)
(-0.000971993463079497 -0.000646482910634308 -2.74096229310395e-18)
(-0.00123553757667453 -0.000854819388395647 -2.72486030179309e-18)
(-0.00152975185042681 -0.00108467879477544 -2.19676384281669e-34)
(-0.00185444522190888 -0.00132993333342207 0)
(-0.00216898481494491 -0.00156362285124927 2.67844602036814e-18)
(-0.00246497485361491 -0.00179087097575812 2.6681060680882e-18)
(-0.00278224619679949 -0.0020423706591024 2.65780087203014e-18)
(-0.00314459998099217 -0.00233799835654257 2.6447680711615e-18)
(-0.00358632393998104 -0.00270406406985796 2.62645495619907e-18)
(-0.00417887444940488 -0.00319135837751713 -2.59298161085387e-18)
(-0.0050951661217158 -0.00388730130846583 -2.5328437868621e-18)
(-0.00636705073807628 -0.00472235388002018 2.44069059372258e-18)
(-0.00793726593656851 -0.00556482983951555 -2.30722992543677e-18)
(-0.0100195190281204 -0.00636269552154453 -2.1244074542926e-18)
(-0.0125152917096399 -0.00676311308975002 1.88428623861684e-18)
(-0.0148778511507153 -0.00608232270483775 -4.06250847644183e-35)
(-0.0137002758134102 -0.00347587776840931 -7.04132796220689e-19)
(-0.00944605317765745 -0.00113152282985493 0)
(-0.0052356031165654 -0.000134347096266227 9.99110892638891e-20)
(-0.00396176831194092 3.61690478882164e-05 0)
)
;
    }
    topWall
    {
        type            calculated;
        value           nonuniform List<vector> 
120
(
(-0.00528023132613667 -1.42900733799191e-06 0)
(-0.00527358609913622 -1.35121647054185e-06 0)
(-0.00526298104794076 -1.2834248507273e-06 0)
(-0.00524872999513436 -1.22443159263015e-06 0)
(-0.00523114965382891 -1.17409446379361e-06 0)
(-0.00521056746436097 -1.13222813716708e-06 0)
(-0.00518731312386344 -1.09827393077154e-06 0)
(-0.0051617070121496 -1.07145039694221e-06 0)
(-0.00513405273184052 -1.05086683061055e-06 0)
(-0.00510463208723979 -1.03557587716761e-06 0)
(-0.00507370155813456 -1.02461831813348e-06 0)
(-0.00504149023360513 -1.01706211228956e-06 0)
(-0.00500819905544921 -1.01203559543456e-06 0)
(-0.00497400139438762 -1.00875446475788e-06 0)
(-0.00493904448271189 -1.00653390499369e-06 0)
(-0.00490345154137467 -1.00479883580887e-06 0)
(-0.00486732464539743 -1.00309449491388e-06 0)
(-0.00483074806178509 -1.00108395189969e-06 0)
(-0.00479379161239901 -9.9853670945037e-07 0)
(-0.00475651384180522 -9.95315393852407e-07 0)
(-0.00471896493335556 -9.91362709862433e-07 0)
(-0.00468118935006875 -9.86688659761919e-07 0)
(-0.00464322816397158 -9.81357900474394e-07 0)
(-0.00460512105183224 -9.75477456106756e-07 0)
(-0.00456690791667379 -9.69184738194715e-07 0)
(-0.00452863017686 -9.62638093655415e-07 0)
(-0.00449033164283976 -9.5600331582969e-07 0)
(-0.00445205913419273 -9.49452294841371e-07 0)
(-0.00441386274494552 -9.43147368600741e-07 0)
(-0.00437579587434578 -9.37244707461812e-07 0)
(-0.00433791500896741 -9.31880932768729e-07 0)
(-0.00430027936824383 -9.27180149776364e-07 0)
(-0.00426295033258471 -9.23239596451806e-07 0)
(-0.00422599088240175 -9.20144995968838e-07 0)
(-0.00418946485894915 -9.17951056819919e-07 0)
(-0.00415343634464701 -9.16705732717561e-07 0)
(-0.00411796890336727 -9.16426158011694e-07 0)
(-0.00408312505110642 -9.17127399031175e-07 0)
(-0.00404896547860959 -9.18797366196272e-07 0)
(-0.00401554890871984 -9.21428998899069e-07 0)
(-0.00398293095393179 -9.24984564765388e-07 0)
(-0.00395116506587506 -9.29458499939762e-07 0)
(-0.0039203001907553 -9.34761355742097e-07 0)
(-0.00389038287379403 -9.4099310573433e-07 0)
(-0.00386145879145345 -9.47916904898012e-07 0)
(-0.0038335608612495 -9.55498868883894e-07 0)
(-0.00380672610204427 -9.6396316744627e-07 0)
(-0.00378098886911006 -9.73044570273606e-07 0)
(-0.00375637630507984 -9.82776588158703e-07 0)
(-0.00373291438475194 -9.9315860904146e-07 0)
(-0.00371062621606508 -1.00416193354684e-06 0)
(-0.00368953212767732 -1.01577785481198e-06 0)
(-0.00366965029720995 -1.02800520301421e-06 0)
(-0.00365099706638082 -1.04085020567995e-06 0)
(-0.00363358732248655 -1.0543268673425e-06 0)
(-0.00361743485191461 -1.06845559003087e-06 0)
(-0.00360255265057245 -1.08326264808378e-06 0)
(-0.00358895323621784 -1.09878037318392e-06 0)
(-0.00357664898353833 -1.11504806172901e-06 0)
(-0.00356565251746051 -1.13211294527186e-06 0)
(-0.00355597709005874 -1.15002887863344e-06 0)
(-0.00354763688426673 -1.16885472692118e-06 0)
(-0.00354064730748566 -1.18865515015358e-06 0)
(-0.00353502526955895 -1.20950010815046e-06 0)
(-0.00353078945691003 -1.23146315654291e-06 0)
(-0.00352796041296591 -1.25462651187427e-06 0)
(-0.00352656135879797 -1.27911417419926e-06 0)
(-0.00352661876310953 -1.30492008413344e-06 0)
(-0.00352815460252307 -1.33253748464715e-06 0)
(-0.00353122680438126 -1.3622743641964e-06 0)
(-0.00353587573495833 -1.39362690506586e-06 0)
(-0.00354213292827384 -1.42652077887247e-06 0)
(-0.00355002941325623 -1.46102790642437e-06 0)
(-0.00355959975724412 -1.49727487587238e-06 0)
(-0.00357088210183215 -1.53534406359505e-06 0)
(-0.00358391686747499 -1.57529510334905e-06 0)
(-0.00359874629903804 -1.61717870581427e-06 0)
(-0.00361541412940612 -1.66103316012797e-06 0)
(-0.00363396506871152 -1.70687980882098e-06 0)
(-0.00365444414587899 -1.7547190579736e-06 0)
(-0.00367689592579407 -1.80452706103552e-06 0)
(-0.00370136361079689 -1.8562524807462e-06 0)
(-0.00372788803892052 -1.90981367853534e-06 0)
(-0.00375650657525497 -1.96509516917662e-06 0)
(-0.00378725188053185 -2.02194393432667e-06 0)
(-0.00382015055436171 -2.08016560656355e-06 0)
(-0.00385522164764162 -2.13952053366832e-06 0)
(-0.00389247504391142 -2.1997199350445e-06 0)
(-0.00393190971063889 -2.26042218248729e-06 0)
(-0.00397351183088451 -2.32122950722964e-06 0)
(-0.00401725282342578 -2.38168503253837e-06 0)
(-0.00406308727434929 -2.44127083452005e-06 0)
(-0.00411095080620785 -2.49940662377198e-06 0)
(-0.00416075791109472 -2.55545005927288e-06 0)
(-0.00421239981960033 -2.60869855295667e-06 0)
(-0.00426574240061567 -2.65839239671708e-06 0)
(-0.00432062426925757 -2.70372198326412e-06 0)
(-0.00437685497809764 -2.74383370833692e-06 0)
(-0.00443421374245257 -2.77784662831643e-06 0)
(-0.00449244815945975 -2.8048591291435e-06 0)
(-0.00455127423432723 -2.82398566685893e-06 0)
(-0.00461037574164157 -2.8343498586464e-06 0)
(-0.00466940676652322 -2.83517483860516e-06 0)
(-0.00472799154969585 -2.82570227774009e-06 0)
(-0.00478573070483707 -2.80547985616412e-06 0)
(-0.00484220490552428 -2.77386557331184e-06 0)
(-0.00489697287219291 -2.7307447216291e-06 0)
(-0.00494959306817765 -2.67637026694809e-06 0)
(-0.00499962437903209 -2.61081487577459e-06 0)
(-0.00504663229762748 -2.53476813186821e-06 0)
(-0.00509020487590756 -2.44917885687988e-06 0)
(-0.00512996158885119 -2.35526172068236e-06 0)
(-0.00516556351649755 -2.25451662698452e-06 0)
(-0.00519672363674238 -2.14868128794578e-06 0)
(-0.00522321513609788 -2.0396613938405e-06 0)
(-0.00524487861897394 -1.92947549988055e-06 0)
(-0.00526162577674167 -1.82014049823817e-06 0)
(-0.00527344244820618 -1.71364038605305e-06 0)
(-0.00528038527272387 -1.61180440725518e-06 0)
(-0.00528258533641412 -1.51649982073395e-06 0)
)
;
    }
    inlet_half0
    {
        type            cyclic;
    }
    inlet_half1
    {
        type            cyclic;
    }
    outlet_half0
    {
        type            cyclic;
    }
    outlet_half1
    {
        type            cyclic;
    }
    sideRight_half0
    {
        type            empty;
    }
    sideRight_half1
    {
        type            empty;
    }
    sideLeft_half0
    {
        type            empty;
    }
    sideLeft_half1
    {
        type            empty;
    }
}


// ************************************************************************* //
