/*--------------------------------*- C++ -*----------------------------------*\
  =========                 |
  \\      /  F ield         | OpenFOAM: The Open Source CFD Toolbox
   \\    /   O peration     | Website:  https://openfoam.org
    \\  /    A nd           | Version:  7
     \\/     M anipulation  |
\*---------------------------------------------------------------------------*/
FoamFile
{
    version     2.0;
    format      ascii;
    class       volScalarField;
    location    "4000";
    object      kDeficit;
}
// * * * * * * * * * * * * * * * * * * * * * * * * * * * * * * * * * * * * * //

dimensions      [0 2 -3 0 0 0 0];

internalField   nonuniform List<scalar> 
15600
(
0.0286097065824425
0.0261904070011419
0.0160510628874549
0.0070358082452536
0.00201820030106035
0.00114756009344556
0.00122534605298487
0.000945277043646272
0.000722553937666528
0.000597369671452126
0.000510584198654132
0.000458912106238248
0.000438302134200777
0.000445963959895308
0.000484051503096641
0.00055309900668106
0.000652003293731796
0.000772504645679883
0.000913447065871674
0.00107209458394169
0.00124108400766979
0.00141195797827598
0.00159589050542672
0.00180043553702625
0.00201800642266603
0.00224928084110474
0.00249790012638515
0.00277558651940068
0.00348422567312089
0.00442888585518658
0.00523134590917101
0.00593056585244082
0.00656809210918252
0.00714967093356728
0.00766442930776159
0.00812153756041276
0.00852477071237492
0.00887581922587053
0.00917668689196384
0.00942959339265555
0.00963714606680082
0.00980222999862245
0.00992798998000773
0.0100176978829964
0.010074688199086
0.0101022575142774
0.0101036079632911
0.01008178653888
0.0100396520143475
0.00997984825992182
0.00990479255837328
0.00981667102102785
0.00971744409969331
0.00960885299635683
0.009492437441148
0.00936955437907723
0.00924140412611212
0.00910903068223495
0.0089733150601209
0.0088350167010701
0.00869472426807846
0.00855291914866622
0.00841001528275237
0.00826631878399589
0.00812206235187786
0.0079774150410445
0.00783248354425986
0.00768731704181502
0.00754191067127179
0.00739620728766661
0.00725009988768262
0.00710342953542491
0.00695598729809525
0.0068075060491847
0.00665766441595586
0.00650606632690635
0.00635225419097414
0.00619566082165511
0.00603565199211924
0.00587141358937258
0.00570211260228783
0.00552615026302624
0.00534303677189478
0.00515424740476524
0.00495732512056463
0.00474794052215474
0.00452329044073394
0.00427725747361106
0.00400629503177063
0.00370124669168719
0.00334405924531684
0.00287824863327719
0.00257837245176212
0.00278206373133247
0.00309376079486998
0.00354303319842583
0.00406255155864393
0.00468286101958039
0.00543897390461321
0.00637480934698733
0.00739949722559308
0.00851315283172308
0.00968402064269752
0.0108798465574754
0.0118948443695047
0.0128644495951488
0.0138925354423742
0.0150470749677258
0.0164463316017615
0.0184209234389812
0.0214894471383339
0.0253617676416628
0.0301897883247645
0.0368419238835437
0.0454189678758088
0.0518524395970155
0.0439439298221476
0.034425516487574
0.0273415222574288
0.0279972415662956
0.103044398517781
0.094706675827605
0.0659839747015132
0.0298583129239792
0.00806977223510829
0.00422293996237794
0.00446329598609508
0.00347156678280893
0.00265386784668939
0.00218980657686715
0.00187013523741585
0.00167911452158606
0.00160132430351772
0.00162798565035844
0.00176751293833266
0.00202174827649754
0.0023844362281543
0.00282620278749801
0.00333926837920039
0.00390675513541848
0.00449659343071272
0.00508510932500117
0.00570397226463257
0.00636411296887543
0.0070489662677433
0.00777911935807816
0.00864228226382503
0.0100024667487674
0.0123826622994233
0.0148826214359432
0.0168847587827167
0.0185957583966701
0.0201230348637091
0.0215106955941339
0.0227285244891792
0.0237935047752023
0.0247166424387253
0.0255080679605594
0.0261773027513924
0.0267332426316751
0.0271846703968324
0.0275401848120807
0.0278082657091041
0.0279971421935579
0.0281147516547722
0.0281686385037972
0.0281659094341252
0.0281131782067205
0.0280165456494724
0.0278815853665774
0.0277133479049237
0.0275163729475118
0.0272947141493698
0.0270519640066146
0.0267912957637035
0.0265155075662987
0.0262270768184163
0.0259281558301888
0.0256205530534907
0.0253058236760111
0.0249851910819381
0.0246596314589444
0.0243299646777139
0.0239968035703403
0.0236605953527508
0.0233216420939075
0.0229801049577137
0.0226360116256889
0.0222892611578952
0.0219396252390498
0.0215867493932073
0.0212301460379327
0.0208691921961616
0.020503109742078
0.0201309622944132
0.0197516110675462
0.0193637203066279
0.0189656605183805
0.0185555514944837
0.0181310447493864
0.0176895602520824
0.0172274861031711
0.0167482192043303
0.0162539980591931
0.0157338803097267
0.0151767423794355
0.0145724472012893
0.0139057746571429
0.0131607206053145
0.0123149148812254
0.0113107877804082
0.00998528215477137
0.00896571220922534
0.00928281995483242
0.0102331908774271
0.0116276136557863
0.0132925370159214
0.0153062999264768
0.0177820400057885
0.0208380217064845
0.0242420087865701
0.0279709981304686
0.0319420723429778
0.0360495932796038
0.0397459479976875
0.0433631298464891
0.0472297334192055
0.0515847199969285
0.0568207536677127
0.0639946190679749
0.0747346032235876
0.0882573425914521
0.104876950641524
0.126598399345376
0.153035852015534
0.1742032136141
0.165468268535052
0.14195221208132
0.114357721464232
0.105559350945643
0.139377175181245
0.125176068597852
0.100163432460646
0.0593298861601081
0.0170984403905241
0.00781150297737493
0.00786217403733589
0.00626181758064302
0.00485507524275276
0.00401367442322123
0.0034270180512989
0.00306670924906695
0.00290944319949365
0.00293718216916073
0.00315830306127502
0.00356265487153099
0.00411811308486923
0.00475265929261523
0.00542598147821399
0.00609000217441157
0.00669552841974266
0.00722638070944547
0.00774061844252414
0.0082811621583383
0.00887134917391072
0.00957986971553933
0.0105266270855386
0.0118144531844735
0.0137166649994556
0.0156762872264524
0.0172924938860112
0.0187011677161124
0.0199477390572422
0.0210003809073605
0.0219321324458596
0.0227577464703057
0.0234829665628357
0.0241143562978079
0.0246578898139054
0.0251192090646174
0.0255039002441461
0.0258174928084597
0.0260654811512206
0.0262532683249985
0.026386126469685
0.0264691403192578
0.0265071666854889
0.0265047963301946
0.0264663299137446
0.0263957611302478
0.0262967698975991
0.0261727221457694
0.0260266773552203
0.0258614000666596
0.0256793800455004
0.0254828558168604
0.0252738401916276
0.0250541150316303
0.0248252168334465
0.024588472201823
0.0243450012952524
0.0240957430687551
0.023841490798946
0.0235828951499451
0.0233204736409209
0.0230546231812014
0.0227856264873736
0.0225136571904841
0.02223878332899
0.0219609689224675
0.0216800738998783
0.021395851092951
0.0211079416468985
0.0208158656768944
0.0205190118434573
0.0202166180327934
0.0199077531360651
0.0195912801717893
0.0192658278268444
0.0189297200143448
0.0185809454695904
0.0182173105010241
0.0178305231589903
0.0174178614136692
0.0169814462580851
0.0165137247251594
0.0160058133361544
0.0154445880496222
0.0148150382987184
0.0140901335396595
0.0132390348724031
0.0121046856527342
0.0111984924736452
0.0114217063316594
0.0122045057141411
0.0135108773323966
0.0152254978286498
0.0173715416553645
0.0200457062516589
0.0233242409527765
0.0270817813068292
0.0312506418070354
0.035770389627963
0.040544954995206
0.045294622204729
0.0502026031679906
0.0555854498240753
0.0617386811890594
0.0690517956407127
0.0783353364060781
0.0906274615146688
0.105199214361054
0.12138811842099
0.138560705481283
0.155038267075373
0.166891131147264
0.166406657687412
0.161886035627268
0.155747916382474
0.150663588796924
0.119100171124283
0.107099639614175
0.0936389460725749
0.0741039382454642
0.0307905012681979
0.0114331737890687
0.0097307683766252
0.00799178340023529
0.00639446849721677
0.00532541363990024
0.00454625093381679
0.00404393265969898
0.00379392485987642
0.00376739157358852
0.00395310863949361
0.00430740921500331
0.00476176837932308
0.00523065812239453
0.00567744367400643
0.00607773497630352
0.00642304345897613
0.00673451680856132
0.00706953907132433
0.00746738332050908
0.00796036574452102
0.00861085230926606
0.00949528972541761
0.0106470968300802
0.0121193450647511
0.0135705539867565
0.0147942388575754
0.0158694144465481
0.0168089727869687
0.0176167402949027
0.0183416396472463
0.0189886062903848
0.0195612619248693
0.0200637436435606
0.0204999075202816
0.0208735491043333
0.0211885047975129
0.0214486509185484
0.021657888374605
0.0218201023062044
0.0219391202173813
0.022018669405403
0.0220623401783996
0.0220735553081521
0.0220555473501584
0.0220113428567874
0.0219437537293294
0.0218553738261178
0.0217485812880906
0.0216255452796233
0.0214882375571986
0.0213384459113542
0.0211777899321465
0.0210077067610029
0.0208294525143259
0.0206441255328578
0.0204526791245335
0.0202559325362425
0.0200545864664442
0.0198492352053988
0.0196403708161923
0.0194283914629869
0.0192136074851694
0.0189962458173151
0.0187764532338412
0.0185542984865601
0.0183297729047448
0.0181027898507176
0.0178731818804257
0.0176406969076224
0.0174049903764296
0.0171656172058826
0.0169220157066342
0.016673494105537
0.0164191989986688
0.0161580958183589
0.0158888957430752
0.0156103117277086
0.0153179412482497
0.0150040299128895
0.0146719523276503
0.0143187874095537
0.0139388378295108
0.0135238195346462
0.0130632498787513
0.0125392373494201
0.0119321204865853
0.0111455946705016
0.010465938593751
0.0104692791040424
0.0109482921326284
0.0118719106140246
0.0131776222255083
0.014853394188999
0.0169485653256994
0.0194983520157445
0.022446434768859
0.0257327345471374
0.0293131311753721
0.0331212006555645
0.0370473761814681
0.0411683163979565
0.045679310292335
0.0507997229376295
0.0567970426307521
0.0640958946116815
0.0730943233671672
0.0833376059377855
0.0941211311849931
0.104425489395314
0.113356898946055
0.120597477240584
0.124459253465678
0.12498652956396
0.127072134601654
0.127051805733434
0.097296313391475
0.0886075015420045
0.0807067072532655
0.0758516578466904
0.0449425728291945
0.0160845133763682
0.0101321919181156
0.00821676118628047
0.00676052488775458
0.00567589291791563
0.0048475422963199
0.00429165546130357
0.00398748540894279
0.00390419359305924
0.00401524082974216
0.00426335710424706
0.00457790921596051
0.00489499764723105
0.00519289898175308
0.00546245585252073
0.00570968342338047
0.0059598365631356
0.00625326590301808
0.00662006889688112
0.00709365087493397
0.00772650950498617
0.00857036109662471
0.00963172889099005
0.0108394968902302
0.0119673868067698
0.0129401861239327
0.013803782761914
0.0145609722931315
0.0152274634785467
0.0158289049125048
0.0163676274263539
0.0168463485768548
0.0172680614843971
0.0176356195290543
0.0179519146260329
0.0182199073386862
0.0184426275431852
0.0186231475735476
0.0187645497300493
0.0188698872995833
0.0189421495519822
0.0189842294406997
0.0189988978852478
0.0189887835879774
0.0189563588948442
0.0189039314398225
0.0188336400396587
0.0187474552693436
0.0186471840671439
0.0185344773490739
0.0184108393049206
0.0182776344424098
0.0181360734340593
0.0179872274784017
0.0178320412786746
0.0176713456329595
0.0175058638289441
0.017336220423059
0.0171629532490865
0.0169865169097006
0.0168072890719055
0.0166255757976538
0.0164416155409354
0.0162555822015605
0.0160675874176207
0.0158776816182857
0.01568585448697
0.0154920334536373
0.0152960820970139
0.0150977948611246
0.0148968932157587
0.0146930138756797
0.0144857030133083
0.0142743916179413
0.0140583902413942
0.0138368241796907
0.0136088316384005
0.0133719192595998
0.0131203737968528
0.012854881365215
0.0125745381275141
0.0122758747157559
0.0119536794056896
0.0116007990729087
0.0112060218841323
0.0107555570524267
0.0101932920171645
0.00966308241270501
0.00954011634318996
0.00982126011545791
0.0104835154644112
0.0114834507976197
0.0127979292363601
0.0144477379560152
0.0164465318077102
0.0187632507931505
0.02135162731743
0.024176079404467
0.027188384734624
0.0303410376880533
0.0336709453374998
0.0372939772314712
0.04135816875991
0.0460428428748281
0.0515818511812441
0.0581250554841201
0.0654021998160925
0.0729242463431042
0.0799176153013602
0.0859046632635062
0.0912639069622644
0.0963515965530714
0.0989558073832107
0.101670698873714
0.102188925485582
0.0815602523027731
0.0752342359660911
0.0697989155195408
0.0715853073657814
0.0545256900551789
0.0222055522463904
0.0104594022348977
0.00782717769557813
0.00648603444211476
0.00547410541704408
0.00468799687953922
0.00415298010352126
0.00385040683734115
0.00375195279509742
0.00382486496642619
0.00401128485384626
0.00424830690294065
0.00448917261896933
0.00471948874264662
0.00493611400026377
0.00514944633525891
0.00538282787463194
0.0056662357988428
0.00602517289305143
0.00649169531511189
0.00710892450312166
0.00791108619900971
0.00888191715206692
0.0099042042928435
0.0108287526468391
0.0116420578282986
0.0123699049940223
0.0130140854371005
0.0135891236724936
0.0141093253647137
0.0145762674633988
0.0149921294659647
0.0153592688518391
0.0156799760796859
0.0159566215269855
0.016191653283336
0.0163875985434789
0.0165470330667572
0.0166725530712418
0.0167667394089336
0.0168321271185584
0.0168711766397865
0.0168862512581137
0.0168795990275758
0.0168533400025788
0.0168094585150416
0.0167497990127896
0.0166760659527216
0.0165898272524286
0.0164925197885898
0.0163854569700998
0.0162698252430317
0.0161466822717079
0.0160169710771385
0.0158815281586566
0.0157410945587923
0.0155963206177622
0.015447771947633
0.0152959399193087
0.0151412451782702
0.0149840428514548
0.0148246272604519
0.0146632356215332
0.0145000509629012
0.0143352044599523
0.0141687767857828
0.0140007990856401
0.0138312523888335
0.0136600671519045
0.0134871198521301
0.0133122311684129
0.0131351577229203
0.0129555895502928
0.0127731321037027
0.0125873058621843
0.0123974963030202
0.0122030935887759
0.0120025759226817
0.0117921190275923
0.0115711633580312
0.0113394044569781
0.0110947436399771
0.0108338716085128
0.0105519294377523
0.0102417809886374
0.00989365197741762
0.00947560124987003
0.00905554000357916
0.00888110222222815
0.00903953658505354
0.0095296692559519
0.0103201541301385
0.0113858184590595
0.0127317299773841
0.0143594902278082
0.0162478794877341
0.018360997165831
0.0206689079922382
0.0231345483909276
0.025736604433493
0.0284979655457013
0.0314915168173178
0.0348195037293524
0.0386082078408347
0.0429981978205353
0.048036689405818
0.0535459801805881
0.059195010284915
0.0644298006704973
0.0689578508321776
0.073214011910082
0.0781496710940905
0.0817521760000844
0.0846079756645987
0.0849624952427072
0.0703726368880623
0.065577689148778
0.0614703420238745
0.0655516537607432
0.0588044846645637
0.0289279333254148
0.0114276627820868
0.00750617513237083
0.00612539127382483
0.00517774650307745
0.00444876697516549
0.00395281196165001
0.00366972190625064
0.0035725440763255
0.00362626724988277
0.00377629441155449
0.00396787790716477
0.00416540231326764
0.00435883026896273
0.00454834859272621
0.00474592683171258
0.0049725021754046
0.00525204256693993
0.00560714395408099
0.00606698267062924
0.00666594871816894
0.00742441072742275
0.00831019474870874
0.00919721497881991
0.0099873868241477
0.0106934723084678
0.0113295157620482
0.0118973595018478
0.0124085078593161
0.0128714872855724
0.0132876208754246
0.0136587199393968
0.0139867427682086
0.0142736238748407
0.0145213979239317
0.0147321814511879
0.01490817389083
0.0150516259150876
0.0151648137591117
0.0152500058983042
0.0153094354319184
0.0153452738329842
0.0153596104985058
0.0153544362641452
0.0153316316706584
0.0152929598507309
0.0152400624990424
0.0151744594884907
0.015097551627017
0.0150106255470777
0.0149148564752312
0.0148113033632453
0.014700915003352
0.0145845413197388
0.0144629392673105
0.01433678243507
0.0142066651426893
0.0140731071300143
0.013936562533076
0.0137974235121224
0.0136560248340714
0.0135126481331038
0.0133675253997644
0.013220841810019
0.0130727380803885
0.0129233120354902
0.0127726198987169
0.0126206763677564
0.0124674548578033
0.0123128854769876
0.0121568543944668
0.0119991982633564
0.0118397034307531
0.0116780932359559
0.0115140296591724
0.0113470766569951
0.0111767974891168
0.0110022186440151
0.0108208015856622
0.0106315868259232
0.0104344517181512
0.0102281462394155
0.0100106062326364
0.00977859638718087
0.00952759421959371
0.00925069653773563
0.00893085869671412
0.00859583653745142
0.00840884475335325
0.00849086895838518
0.00886267377711156
0.00950400767493621
0.0103914389314158
0.0115213687016602
0.0128882606225779
0.014475017766503
0.0162528535090565
0.0181959821888843
0.0202748024641244
0.0224806942171524
0.0248314734982361
0.0273762971394938
0.0301886422108784
0.0333617348609588
0.0369856875659315
0.0410600158218583
0.0454551703654044
0.0499392921227585
0.0541081450489694
0.0577609395362289
0.0612658860208698
0.0656606773212245
0.0695397815928169
0.0725809686950562
0.072970410648916
0.0620663770273839
0.0583045188599759
0.0550868709886352
0.0594818427595189
0.06026361063273
0.0353037035837232
0.0132375075583938
0.00745579485743887
0.00586087472765383
0.00493882123407154
0.00425311546569076
0.00378977827545465
0.00352434246731559
0.00342943834824678
0.00346915500339808
0.00359291574479265
0.00375292193899725
0.00392100399482277
0.00409010906484162
0.00426248612814651
0.00445048651059321
0.00467285534139277
0.00494971996166599
0.00530127348366777
0.00575313413178725
0.00633190056080027
0.00704715128923705
0.00785763510387517
0.00864366106262401
0.00934048378436931
0.00997078458461368
0.01054166447817
0.011054867175557
0.0115192214024271
0.0119400924764974
0.0123186924747944
0.0126565655361065
0.0129553989393037
0.0132168852476623
0.0134428287030741
0.0136351184769742
0.0137957285514513
0.0139266857933448
0.0140300455188879
0.0141078599758879
0.0141621524866984
0.0141948929787307
0.0142079789487797
0.0142032201504644
0.0141823276228761
0.0141469071006275
0.0140984551633587
0.0140383587583952
0.0139678976506466
0.0138882486798038
0.0138004828887457
0.0137055661457803
0.0136043667738369
0.0134976648465522
0.01338615706725
0.0132704651588111
0.0131511396991063
0.0130286642153843
0.0129034629202339
0.0127759044319939
0.0126463059855425
0.0125149373747453
0.0123820242945063
0.0122477511194181
0.0121122632809013
0.0119756690072491
0.0118380408414233
0.0116994162187735
0.0115597981999646
0.0114191544909269
0.0112774176186505
0.0111344813995248
0.0109902012713381
0.0108443856874961
0.0106967988656794
0.0105471349087831
0.0103950863989672
0.010240019727337
0.0100802463674655
0.00991479869061125
0.00974361530036415
0.00956599903993366
0.00938074314060792
0.00918579832722507
0.00897841783321138
0.00875384304933642
0.00850438646861265
0.00823643003094335
0.00805602286285343
0.00809080432078863
0.00837844480794264
0.00890917295568305
0.00966306088130129
0.0106319012544877
0.0118058684086475
0.0131696704309881
0.0146993932801551
0.016372438827706
0.0181645496764996
0.0200738198125717
0.0221161708011357
0.0243270234500851
0.0267612545237225
0.0294902773887531
0.0325742576529227
0.0359889308860441
0.0396321876274344
0.0433349034513572
0.0467929860986879
0.0498549984543792
0.0528077754346736
0.0566085214513373
0.0603860167094971
0.0635231393183537
0.0640996688493509
0.0555983178395863
0.0525832715605786
0.0500525518421743
0.0539496275752739
0.0598396377626187
0.0408790681573488
0.0160004010229401
0.00773086720807324
0.00572602049232796
0.00478089258764942
0.00411889202029612
0.00367660960056467
0.00342226689291926
0.0033266190051439
0.00335318159468188
0.00345518990732892
0.00359050857786464
0.00373614331457247
0.00388717280964686
0.00404711654614031
0.00422811958157535
0.00444702822332945
0.0047212455610233
0.0050687291116681
0.00551138498623815
0.00606911222014032
0.00674342432572315
0.00748911173268849
0.00819829891852167
0.00882775864848384
0.00940251688415047
0.00992547986428982
0.0103981096858046
0.0108271555458827
0.0112161509487972
0.011566236218152
0.011878755374068
0.0121552021736437
0.0123970974329249
0.0126060814348139
0.0127838825064337
0.0129323152372217
0.0130532484944028
0.0131485814509144
0.0132202132771275
0.0132700183337708
0.0132998229196675
0.0133113871793055
0.0133063906455513
0.013286421823255
0.01325297204021
0.0132074317779451
0.0131510901962838
0.0130851378346407
0.0130106678478711
0.0129286725785076
0.0128400483093555
0.0127456024675011
0.012646061612455
0.0125420758814763
0.0124342264345046
0.0123230292138497
0.012208938785746
0.0120923551206414
0.0119736273778554
0.0118530578937979
0.0117309059084995
0.011607390810015
0.0114826948919825
0.0113569657617966
0.0112303182270382
0.0111028359948678
0.0109745726455301
0.0108455527408018
0.0107157716555113
0.0105851963619631
0.0104537634830674
0.0103213804549295
0.0101879200990909
0.0100532241449682
0.00991708578327686
0.00977929916678154
0.00963945821104522
0.00949644416334986
0.0093494478994593
0.00919844164402878
0.0090431094719504
0.00888285812839753
0.00871652609002293
0.00854262635071695
0.00835805650919531
0.00816103090977957
0.00794670417484645
0.00778200410852451
0.00778852633361208
0.00801508593999738
0.00846130183362758
0.00911153902526147
0.00995545879439304
0.0109807494458004
0.0121729564213646
0.0135115645100088
0.0149764912098247
0.016547497394128
0.0182264131821004
0.0200283881234326
0.0219805191088245
0.0241252638205072
0.0265189260393971
0.0292025886490609
0.0321399597171048
0.0352462069005277
0.0383931133199759
0.0413444722612435
0.0439761621417384
0.0465019214692727
0.0497593716740484
0.053262361157843
0.0563761883275242
0.05716991444456
0.0503579342863079
0.0479154482020201
0.0459498388864314
0.0490923816429994
0.0581433032687896
0.0452829442753531
0.0196451373076405
0.00837616065809045
0.00572599463838806
0.00469941583141708
0.00404056964946066
0.00360775394123829
0.00335756279924866
0.00325759184855031
0.00327064752323861
0.0033532394152908
0.00346779061095385
0.0035950129224758
0.00373151697111248
0.00388156106037817
0.00405678307418765
0.00427238687442354
0.00454366526057416
0.00488643439408067
0.00531902132118816
0.00585573251623864
0.00649231167677672
0.00718298738968744
0.00783284963764374
0.0084123744064547
0.00894542546262581
0.00943232039683003
0.00987414203804335
0.0102760643462831
0.0106405060230834
0.0109685438464557
0.0112613686401048
0.01152033135645
0.0117468279842018
0.0119423802879112
0.0121086016230965
0.0122471931360604
0.0123599116508968
0.0124485456189135
0.0125148855293898
0.0125606996550778
0.0125877115921491
0.0125975827770126
0.0125918986462797
0.012572158617839
0.0125397703192284
0.0124960460876021
0.0124422026686291
0.0123793638336247
0.0123085577764072
0.0122307176102539
0.0121466868001695
0.0120572260648134
0.0119630204612759
0.0118646836906517
0.0117627648363398
0.0116577521453524
0.0115500767986328
0.0114401189794667
0.0113282117050425
0.011214644686243
0.0110996679155303
0.0109834948532054
0.0108663051871748
0.0107482472826331
0.0106294401989884
0.0105099755456395
0.0103899187782903
0.0102693106144357
0.0101481675113855
0.0100264829422765
0.00990422669872267
0.00978134672785843
0.00965776619531312
0.009533387670015
0.00940808221249433
0.00928172632464469
0.00915407584299746
0.00902440813035626
0.00889211644802624
0.00875722230363174
0.0086196832320605
0.00847935744835765
0.00833575933993425
0.00818832262000092
0.00803525081339901
0.00787843702260533
0.00770744209622317
0.00756238166554746
0.00755328431621424
0.00773512878292026
0.00811544055307118
0.00868310815863579
0.00942723110964695
0.010334224214832
0.0113900917792442
0.01257675212769
0.0138761525681289
0.0152711836907025
0.0167658035442778
0.018374747301997
0.0201198596383763
0.0220350702659762
0.024165810892537
0.0265403585825848
0.0291167173403022
0.0318220321440712
0.0345555246999756
0.0371275830586098
0.0394286553799705
0.0416115208795426
0.0443969066975079
0.0475621211568474
0.0505595731339641
0.0515369743346555
0.0459816346936159
0.04399594605662
0.0425031913501017
0.0448961965550299
0.0555947818003386
0.0483802837014671
0.0239447877649013
0.00945661254122857
0.00587061165160931
0.00468898216867421
0.00401096637575652
0.00357648792869702
0.00332385369078357
0.00321607992694179
0.00321485932329764
0.00327930780167132
0.00337548039917747
0.00348678727662301
0.00361092339074907
0.00375251641922548
0.00392254155572109
0.00413476211455757
0.00440272480943758
0.00474020316412705
0.00516222694163609
0.00567854869670957
0.00628098213784697
0.00692527598766894
0.00752884829907792
0.00807070114717638
0.00857197778185574
0.00903135872609046
0.00944951443231999
0.00983041880217563
0.010175780232868
0.0104866113398859
0.0107639835374977
0.0110091402225844
0.0112233859586601
0.0114081570616423
0.0115649855491531
0.011695493049796
0.0118013583616988
0.0118842929172135
0.0119460115050113
0.0119882082003346
0.0120125343689196
0.0120205815472347
0.0120138680405641
0.0119938291797743
0.0119618118846416
0.0119190713155257
0.0118667711156751
0.011805983887345
0.011737688392565
0.0116627730410769
0.0115820410502451
0.011496217144425
0.0114059540389822
0.0113118367635666
0.0112143888920835
0.0111140764031617
0.0110113114813554
0.0109064580712516
0.0107998357504953
0.0106917235245352
0.0105823633350091
0.0104719632203193
0.0103607000967871
0.010248722260095
0.0101361515229813
0.0100230852126097
0.00990959773810145
0.00979574226860553
0.00968155173795031
0.00956704053649998
0.00945220481568068
0.00933702490442846
0.00922146434736397
0.00910547471349372
0.00898898974677638
0.00887195415527305
0.00875424473062237
0.00863542282834084
0.00851508177506937
0.00839331041139266
0.00827027166386622
0.0081461632283934
0.00802101988471773
0.00789496141309919
0.00776723168406547
0.00764194506055901
0.00750624529446391
0.00738199083975636
0.00736578750994094
0.00751491313966187
0.00784315160747286
0.00834379016262183
0.00900636898650342
0.00981687504842888
0.0107616640509352
0.0118244537514646
0.0129888636616182
0.0142402866398114
0.0155838888174741
0.017034063859155
0.0186092213195601
0.0203372951025651
0.022255657670854
0.0243836802629543
0.0266773095563709
0.0290727200227471
0.0314878740383119
0.0337652321385696
0.0358018896073882
0.0377011863235437
0.0400823722800547
0.0429003096331059
0.0457222056150785
0.0468293963524739
0.0422438367849917
0.0406313200005717
0.0395322494214635
0.0412960508366702
0.0525024027494368
0.050215711923786
0.0285154208629222
0.0110609370443267
0.00618240346283099
0.00474926515957969
0.00402562877664539
0.00357814569040075
0.00331663650090826
0.00319763590207788
0.00318109927641465
0.00322800964745319
0.00330725628805289
0.00340421293354566
0.00351730879258283
0.0036512753266981
0.00381634458713227
0.00402499350725589
0.00428925816296308
0.00462099044328964
0.00503227312145958
0.00552923217383685
0.00610117168655862
0.00670653240005687
0.00727375255982739
0.00778691764227697
0.00826383619477434
0.0087021509695357
0.00910208841109347
0.00946670161795063
0.00979722404813503
0.0100946015324898
0.0103598108021978
0.0105940133773275
0.0107984474245713
0.0109744891520511
0.0111236152030008
0.0112473940324565
0.0113474528695758
0.0114254523693004
0.011483057298806
0.0115219123662888
0.0115436204285048
0.0115497255474123
0.0115416998911085
0.0115209341697337
0.0114887325123852
0.0114463093662478
0.011394789881154
0.0113352075394364
0.0112685045268543
0.0111955357140303
0.0111170738222406
0.011033815947155
0.010946389663566
0.0108553574560594
0.0107612226027661
0.0106644331538769
0.0105653858247209
0.0104644311929878
0.0103618776171837
0.0102579950118136
0.0101530183224422
0.010047150687908
0.00994056625920563
0.00983341276229939
0.00972581375082711
0.0096178707360657
0.0095096649883696
0.00940125944707473
0.00929270016284012
0.00918401835221676
0.00907523151815192
0.00896634638039099
0.00885735949848534
0.0087482626858991
0.00863904109430468
0.00852969677675247
0.00842020037582033
0.00831032230448841
0.00819983694395408
0.00808891207727554
0.00797787160277648
0.00786717286801779
0.00775725388438319
0.00764875138452299
0.00754173953315805
0.00744158970775428
0.00733482274876831
0.00723105043714675
0.00721348053679806
0.0073388689000174
0.00762564193193533
0.00807112548331027
0.00866592261229096
0.00939619139390559
0.010248656660595
0.0112084187605417
0.0122605031818607
0.0133923439299619
0.0146097669398412
0.0159267998560624
0.0173595315748733
0.0189315956606828
0.0206742495242186
0.02260053903166
0.0246665761763841
0.0268157938796551
0.0289789863444072
0.0310204391274478
0.0328387521694608
0.0344978960031969
0.0365335304303546
0.0390196140765096
0.0416340852988649
0.0428174827449594
0.0389978528592699
0.0376940670923075
0.0369181187328464
0.0382102219470327
0.0491205133613567
0.0509326049991955
0.0329229744580045
0.0132888267116722
0.0067000114752869
0.00488642208455755
0.00408340766436698
0.00361034686952079
0.0033332959231402
0.00319949973765209
0.00316630822388016
0.00319576801697337
0.00325888278841276
0.00334241760568631
0.00344524875198333
0.00357201218704357
0.00373215477177973
0.00393698419279828
0.0041971927189686
0.00452285227448137
0.0049234699485736
0.00540234480238212
0.00594733524758485
0.00652014659588673
0.00705876172691927
0.00755005466431447
0.0080083580014963
0.00843062875613474
0.00881664973730131
0.0091687468641156
0.00948781801122754
0.00977473944263701
0.0100304114524155
0.0102559331177092
0.0104524957994928
0.0106214359041864
0.0107641956718653
0.0108823117734735
0.0109773813688634
0.0110510356597553
0.0111049102366194
0.0111406205722269
0.0111597402206734
0.0111637839040001
0.0111541946143766
0.0111323341504087
0.0110994783046078
0.0110568143109609
0.0110054394213503
0.0109463588869471
0.0108804884942263
0.0108086585028718
0.0107316189316757
0.0106500459636358
0.0105645478390301
0.0104756694489171
0.0103838980051262
0.0102896671668845
0.0101933610650482
0.0100953192676043
0.009995840754196
0.00989518770654649
0.00979358898709973
0.00969124332636745
0.00958832219391449
0.00948497243149844
0.0093813186177163
0.00927746532502752
0.00917349912766866
0.00906949072100093
0.00896549673436031
0.00886156210850357
0.00875772189037048
0.00865400462725959
0.00855043427560095
0.00844703620236718
0.00834383834025162
0.00824089147912505
0.00813824125087155