/*--------------------------------*- C++ -*----------------------------------*\
  =========                 |
  \\      /  F ield         | OpenFOAM: The Open Source CFD Toolbox
   \\    /   O peration     | Website:  https://openfoam.org
    \\  /    A nd           | Version:  7
     \\/     M anipulation  |
\*---------------------------------------------------------------------------*/
FoamFile
{
    version     2.0;
    format      ascii;
    class       volScalarField;
    location    "4000";
    object      nut;
}
// * * * * * * * * * * * * * * * * * * * * * * * * * * * * * * * * * * * * * //

dimensions      [0 2 -1 0 0 0 0];

internalField   nonuniform List<scalar> 
15600
(
1.70632407558683e-07
1.5651349772515e-07
9.47823784322145e-08
3.87114172905172e-08
9.49918480880562e-09
4.80561389257269e-09
5.03808322981764e-09
4.15600536164528e-09
3.62208598479708e-09
3.59283188734689e-09
3.82146346736204e-09
4.25573969960379e-09
4.94565385027947e-09
6.02347329634144e-09
7.71118507970252e-09
1.02545874488155e-08
1.39821400999057e-08
1.93606184241662e-08
2.70698538909309e-08
3.79517295714991e-08
5.29104003348787e-08
7.2772061442758e-08
9.82743790858998e-08
1.29495744170663e-07
1.64915158983919e-07
2.02035645206661e-07
2.3717776592341e-07
2.66629495292597e-07
3.32550208199683e-07
4.22712858553029e-07
4.99302899084865e-07
5.66038892989587e-07
6.26886458514293e-07
6.82393861388254e-07
7.31522917858152e-07
7.75149480713363e-07
8.13633624715119e-07
8.47136688959204e-07
8.75849911980109e-07
8.99985152727779e-07
9.19791285494787e-07
9.3554370540413e-07
9.47542605838758e-07
9.56100315860417e-07
9.61535145565927e-07
9.64161788294011e-07
9.64285921541029e-07
9.62198412779021e-07
9.5817216181285e-07
9.52459552443207e-07
9.45291336198939e-07
9.36876195268281e-07
9.2740126921419e-07
9.17032768399635e-07
9.05917667308037e-07
8.94185494408974e-07
8.81950823570821e-07
8.69313286546262e-07
8.56356965116612e-07
8.4315433291395e-07
8.29761546559987e-07
8.16224568699173e-07
8.0258291424842e-07
7.88865782384101e-07
7.75095381340892e-07
7.61287841409902e-07
7.47453339343236e-07
7.33596562508604e-07
7.19717039998435e-07
7.05809310982472e-07
6.91863156094918e-07
6.7786339968119e-07
6.6379009453613e-07
6.49617739842609e-07
6.35315657829402e-07
6.2084604220332e-07
6.061652156904e-07
5.91219042652799e-07
5.75946989260335e-07
5.60271357858132e-07
5.44112663240199e-07
5.27318007105098e-07
5.09841727169589e-07
4.91823669864953e-07
4.73029371013731e-07
4.53045734548335e-07
4.31605324482065e-07
4.08124396309852e-07
3.82264583505924e-07
3.531521117828e-07
3.19065174400169e-07
2.74614096093298e-07
2.47593231296071e-07
2.64066036530628e-07
2.77795224404901e-07
2.89448426625414e-07
2.92103969393885e-07
2.88277120827256e-07
2.80235047452995e-07
2.71687745543216e-07
2.61856569795092e-07
2.52205925648061e-07
2.42625365328626e-07
2.33243550710161e-07
2.20464418072257e-07
2.04874562071154e-07
1.87586144900775e-07
1.69738279220033e-07
1.52474682895059e-07
1.37835283281747e-07
1.29213575655006e-07
1.27102689313443e-07
1.32697524177541e-07
1.51434743944689e-07
1.90147895823895e-07
2.44045573840827e-07
2.4176511300757e-07
2.03262560898401e-07
1.63374851279245e-07
1.66972553946662e-07
1.37004955649988e-05
1.26027693517503e-05
7.53701327451359e-06
3.25193305268191e-06
8.74530350561157e-07
4.51745986673234e-07
4.72541369302495e-07
3.9138882212662e-07
3.39364978956036e-07
3.35044495694051e-07
3.54913353919809e-07
3.93754724411482e-07
4.55682769867731e-07
5.52086175674777e-07
7.02504187662668e-07
9.28553837722014e-07
1.25974275313791e-06
1.73577007697503e-06
2.41490690353313e-06
3.36995901282782e-06
4.67606933630406e-06
6.38636763957835e-06
8.54614618623746e-06
1.11504710886632e-05
1.40432229793148e-05
1.69797752306765e-05
1.95603880222734e-05
2.12978573128244e-05
2.59198190828922e-05
3.24566117750905e-05
3.78748297285343e-05
4.24552569533022e-05
4.65544945859e-05
5.020317002321e-05
5.33569029523514e-05
5.61261294540065e-05
5.85647684428666e-05
6.06912731114017e-05
6.25235921136438e-05
6.40785383851672e-05
6.53733591449237e-05
6.64255222022329e-05
6.72529710793103e-05
6.78736936838514e-05
6.83056044530102e-05
6.8566188480901e-05
6.8672333183362e-05
6.86401022112189e-05
6.84846224223887e-05
6.82199799170841e-05
6.78591751256646e-05
6.7414101609658e-05
6.68955684488908e-05
6.63133209613595e-05
6.5676118735279e-05
6.49918204212135e-05
6.42675109859453e-05
6.35094739943141e-05
6.27231290027006e-05
6.19132624627582e-05
6.10837305733281e-05
6.02377725217229e-05
5.93782463958221e-05
5.85073993233014e-05
5.76270405847622e-05
5.67385900217762e-05
5.58430806429741e-05
5.49411804174586e-05
5.40332067141262e-05
5.31191312221222e-05
5.21985882385779e-05
5.12708569095694e-05
5.03348650901604e-05
4.93891336955073e-05
4.84317885721798e-05
4.74604279799742e-05
4.64721818440792e-05
4.54634056270872e-05
4.44299022967596e-05
4.33662079394387e-05
4.22665550602651e-05
4.11177294832764e-05
3.99059065745711e-05
3.86442018737221e-05
3.73211838386129e-05
3.59053587525857e-05
3.43758863043187e-05
3.26847100782593e-05
3.08035856168891e-05
2.8657421625205e-05
2.60941543395934e-05
2.26836604912689e-05
2.0730392859349e-05
2.23982323907312e-05
2.35659762105498e-05
2.45239725140848e-05
2.47611273304131e-05
2.44893571433213e-05
2.38858035513751e-05
2.32234822874016e-05
2.24250306236594e-05
2.16192998348238e-05
2.07983431508748e-05
1.99672546510648e-05
1.88448004422146e-05
1.75180233397943e-05
1.60682101504472e-05
1.45772653344477e-05
1.31391934902957e-05
1.19286114848023e-05
1.12041601601128e-05
1.0959796615425e-05
1.13032426565364e-05
1.26077470219815e-05
1.51737211555307e-05
1.82485039446839e-05
1.69954691366187e-05
1.42506049046365e-05
1.19993652570997e-05
1.30365928055217e-05
0.000103619371400893
0.000100096181230963
7.55455624101096e-05
4.11325077335887e-05
1.34596130902323e-05
6.45399129840685e-06
6.83177735649653e-06
5.73832174048838e-06
4.97930526521204e-06
4.89474676353827e-06
5.1702856922806e-06
5.70891673709556e-06
6.56025781770169e-06
7.87897827834977e-06
9.9206242068765e-06
1.29396990425132e-05
1.72427344243642e-05
2.32163387587529e-05
3.13337926656767e-05
4.20127103153952e-05
5.54670604910979e-05
7.16218387260489e-05
9.01120810644548e-05
0.000110055756350527
0.000129990349888281
0.000148531766505296
0.0001649783146989
0.000182049511624383
0.000211171749090875
0.000243277590286799
0.0002683083479167
0.000289026459812808
0.000307522620688671
0.00032488061933781
0.000340036617136975
0.000353333477072101
0.000365013781148874
0.000375202974608756
0.000384010967640585
0.000391533043455656
0.000397859624764158
0.00040307700112097
0.000407269707687459
0.000410519737103233
0.000412906755281992
0.000414507242411553
0.000415394214811599
0.00041563665156886
0.000415299269692733
0.000414442289299383
0.000413121374857089
0.000411387637786189
0.000409287778952114
0.000406864209991637
0.000404155381499273
0.000401196152958991
0.000398018297769301
0.00039465034647811
0.000391117233713178
0.000387441170935718
0.000383640771830625
0.000379731929328343
0.000375728815186622
0.000371643142508912
0.000367484688300772
0.000363261476886615
0.000358979794484743
0.000354644257546669
0.000350257851156489
0.00034582192793347
0.000341336210587664
0.000336798692614852
0.000332205602608378
0.00032755113951052
0.000322827428832304
0.00031802392781532
0.000313127491742776
0.000308121048543584
0.000302984157431176
0.000297689989089134
0.000292208618351517
0.000286481546802501
0.000280589981181213
0.000274611504461121
0.000268345553624768
0.00026163875213303
0.000254356857208075
0.00024628369256033
0.000237181566514104
0.000226769868915459
0.000213838951056654
0.000196124374948289
0.000183501194944671
0.000188225277540426
0.000196118261912446
0.000202461861260784
0.000204429145749227
0.000203188369510196
0.0001998563493828
0.000195917409393192
0.000190930400735252
0.000185585336856088
0.000179893546321104
0.000173829861178225
0.000165693682127501
0.000156028647731323
0.000145392421817138
0.000134292678520771
0.000123337614520844
0.000113815947024869
0.00010763653381432
0.000104702516261872
0.000105719597719167
0.000112905451617236
0.000127378759142834
0.000142020202625026
0.000134668300073496
0.00011650566500526
0.000100493086159476
9.98031259280602e-05
0.000274495099337765
0.000275368419565841
0.00022499314286928
0.00013717647918991
6.33518411857562e-05
3.65161145149337e-05
3.90964770186424e-05
3.39831873042393e-05
2.98714818434178e-05
2.92587949359251e-05
3.06090984292054e-05
3.32256385497108e-05
3.72777850537701e-05
4.33716425925921e-05
5.25046817709391e-05
6.54388362871524e-05
8.28855174325537e-05
0.000105509710463099
0.000134034059566047
0.000168700014739289
0.00020898859526366
0.000253799149439954
0.000301705096374271
0.000350200140459139
0.000395891746411462
0.000436557751114307
0.000473775072888632
0.000517560421876803
0.000586246062950647
0.000656307895881068
0.000710276881661079
0.000755417595549468
0.000795914155598343
0.000832889700523329
0.000864992687204369
0.000893062072081072
0.000917604222950765
0.000938929969725861
0.000957304412133092
0.000972953228517435
0.00098608516688111
0.000996895073085017
0.00100556972005842
0.00101228726365141
0.00101721824421492
0.0010205245198222
0.00102235909417986
0.00102286538682854
0.00102217705894044
0.00102041781096349
0.00101770146314344
0.00101413213529723
0.00100980466031388
0.00100480495987514
0.000999210789064223
0.000993092589333289
0.000986514525890831
0.000979533920684621
0.000972200891026123
0.000964559920822474
0.00095664862835885
0.000948499137856636
0.000940139877426073
0.000931594571746408
0.000922883032630675
0.00091402150868531
0.000905022752010635
0.000895896139242472
0.000886647735277858
0.00087728027827289
0.000867793153019302
0.000858182182059608
0.000848439492912309
0.000838552989912265
0.000828506141064521
0.000818276832672726
0.000807837225316832
0.000797151280751386
0.000786175236589817
0.000774852099355574
0.000763116575306995
0.000750854727931824
0.000738114652131842
0.000725240975452906
0.000711792389129124
0.00069740408398737
0.000681765534282782
0.000664424885161136
0.000644838174450257
0.000622292882921969
0.000594675500603864
0.000556389596554037
0.000527794096691436
0.000537199453729857
0.000557612313484531
0.000575208755973102
0.00058304342758986
0.000583225579382592
0.000578477598154945
0.00057191530522183
0.00056243818692793
0.00055132307923014
0.000538714643455822
0.000524418254876252
0.000504480665890559
0.000480197363838025
0.000453225541114514
0.000424884313583874
0.000396675786631457
0.000372084842070319
0.000356339477226296
0.000349017038232601
0.000351758600709301
0.00037050611546647
0.000408329348098433
0.000445532247881537
0.000419644062264621
0.000355439958546944
0.000288598860321136
0.000267959163972115
0.000517240895743283
0.000522443043092141
0.000440391944809033
0.000270323098542542
0.000145314734523537
0.000107097057096832
0.000121476364284903
0.000111719782604731
0.000100628589843221
9.84711504234656e-05
0.000101658670361635
0.000107861532189687
0.000117291156595414
0.000131216004424495
0.000151883424650776
0.000180618617096857
0.000218202732993606
0.000264937974503203
0.000321292263195622
0.000386708861318185
0.000459353495632924
0.00053689293476883
0.000617075578250326
0.000695869170293893
0.000768106939184157
0.000831673545866094
0.000891983352283701
0.000966721041659244
0.00108241752213636
0.0011991098055827
0.00128886146885694
0.00136399956612764
0.00143089938006743
0.00149036626673095
0.00154196097185647
0.00158701481697766
0.00162632267107777
0.00166041322328444
0.00168973370169091
0.00171466383003937
0.00173555212875257
0.00175272172688016
0.00176647985196341
0.00177711778375538
0.00178491263851224
0.00179012619656825
0.00179300481740099
0.0017937786051054
0.00179266129495109
0.00178985012887933
0.0017855261185097
0.00177985445734374
0.00177298526442622
0.00176505430289636
0.0017561842331449
0.00174648609014966
0.00173606059817052
0.00172499732777651
0.00171337467671763
0.00170126180081564
0.00168871745009976
0.00167579171682792
0.00166252848942678
0.00164896446883249
0.00163513014399081
0.0016210503153742
0.00160674425333576
0.00159222587753613
0.00157750384842961
0.00156258153736657
0.00154745695300061
0.00153212241504257
0.00151656427671169
0.00150076212429541
0.00148468828960167
0.00146830616672247
0.00145156962585336
0.00143441949754649
0.00141678342983844
0.00139856828017603
0.00137966514630062
0.00135990111882197
0.00133923688513598
0.00131804963113133
0.00129590051445139
0.00127216917037154
0.00124630457495762
0.00121754701173638
0.00118496252000521
0.00114720702728675
0.00110124781736405
0.00103741106905472
0.000989430537147682
0.00100572274067954
0.00104345869030722
0.00107825214069098
0.00109790284647653
0.00110457801189776
0.00110285531586004
0.00109757150873425
0.00108689126780734
0.00107234573993141
0.00105429065056721
0.00103221949055466
0.000999705709573474
0.000958780446700268
0.000912791010998506
0.000864305544495125
0.000816037849828415
0.000774390105909816
0.000749057990503417
0.000739400715911659
0.000747788877751047
0.00078452204625327
0.00085532210189075
0.000924513706197538
0.000874394883247112
0.000740606767862998
0.000586741014403675
0.000520129506889196
0.000832472252304189
0.000834083015884349
0.000719289509274633
0.00044025974747691
0.000245679180384104
0.000201990197493342
0.000248751441236041
0.000246985448214882
0.000229199256412695
0.000224925565535437
0.000229968058321549
0.000239678366141134
0.000254265893244209
0.000275982301434631
0.00030895962782738
0.000355196846547673
0.000415112551376676
0.000488121917510794
0.000574163060809569
0.000671633413749039
0.000777263175948011
0.000887644097686426
0.000999938667661734
0.00110870420692318
0.00120740454273233
0.00129491266428457
0.00138118503816987
0.00149187638504324
0.0016600890416112
0.00182844975464942
0.00195845963961384
0.00206747932677775
0.00216351531271605
0.0022477985258011
0.00232101410429845
0.00238494303447042
0.00244068566543443
0.00248900651775152
0.00253055071441782
0.00256586705207773
0.00259545786156518
0.00261978791955747
0.00263929748771082
0.00265440292729203
0.00266549917773773
0.00267295853442185
0.00267713059786065
0.00267834135358339
0.00267689310110629
0.00267306441923174
0.00266711062670837
0.002659264448016
0.00264973711785202
0.00263871950560467
0.00262638394023246
0.00261288638777078
0.00259836745057679
0.00258295225283744
0.00256675020962465
0.0025498574384004
0.0025323558723237
0.00251431532522459
0.00249579645963922
0.00247685003108451
0.0024575180107209
0.00243783428201524
0.00241782491846396
0.00239750842804366
0.00237689587429443
0.00235599083151715
0.00233478925099548
0.00231327901290879
0.00229143946831581
0.00226924036291818
0.00224664099577752
0.00222358801563388
0.0022000142155305
0.00217583407359255
0.00215094257850226
0.00212520587396647
0.00209846500951465
0.00207048467696024
0.00204111931232614
0.00201063957731086
0.00197864895729837
0.00194431345649924
0.00190680775758575
0.00186501969147103
0.0018175602089458
0.00176236090157587
0.00169538392520838
0.00160269305567698
0.00153177166220637
0.00155341054181778
0.00161095608395356
0.0016675888463622
0.00170472393465846
0.00172334831746085
0.00172968760852819
0.00173024333157453
0.00172252016774229
0.00170793441378856
0.00168701665639467
0.00165881177410024
0.00161446524107618
0.00155659334978382
0.00149064555090052
0.00142088974876209
0.00135160361758137
0.00129258751237187
0.00125865182819849
0.00124929515243967
0.00126727015549218
0.00132688024866857
0.00143645694547217
0.00154258203399374
0.00146803244223159
0.00125255930701332
0.000993430680807249
0.000860132951223656
0.00121802787167419
0.00120633887179868
0.00105888139832718
0.000657208904335681
0.000362929814177384
0.000302157786458039
0.000391121574745267
0.000424976300993955
0.000408055632905019
0.000402842460402565
0.000409822528137847
0.000422319979347662
0.000440699936170799
0.000468686734173562
0.000512963622789237
0.000576398804450102
0.000658750222966531
0.000758269920500858
0.000874188779199941
0.00100370277184873
0.00114208005862571
0.00128499539466231
0.00142911696866884
0.0015677495641844
0.00169354591927266
0.00180708951126822
0.00192317666784208
0.00207513079846528
0.00229967593187829
0.00252235243567985
0.00269556859752532
0.00284116190055245
0.00296848916642704
0.0030796251620458
0.00317634641418901
0.00326085166810291
0.00333455914955159
0.00339848094689699
0.00345347074897503
0.00350025714098604
0.0035395062524314
0.00357183410498055
0.00359782301611441
0.00361802303901709
0.00363295506434298
0.00364310961070945
0.00364894677389217
0.00365089524221501
0.00364935225398722
0.00364468365632441
0.00363722457236318
0.00362728032672169
0.00361512792927472
0.00360101765238313
0.00358517554667442
0.00356780580347014
0.00354909202396763
0.00352919763849869
0.00350826553883627
0.00348642094244391
0.00346377091464525
0.00344040671333646
0.00341640715541693
0.00339183821800371
0.00336675429803927
0.0033411990778907
0.00331520593951768
0.00328879828017731
0.00326198966423771
0.00323478376326247
0.00320717415251117
0.00317914373729906
0.00315066408945322
0.00312169409180477
0.0030921786883472
0.00306204617048691
0.00303120623176537
0.00299954463064786
0.00296692070361706
0.0029331565069668
0.00289803827902398
0.00286126499738293
0.00282257972764828
0.00278208587480824
0.0027393955314612
0.00269349947054809
0.0026432914214365
0.00258728680786439
0.00252360310501373
0.00244941539800512
0.00235963883761595
0.00223625504590985
0.00213932641744879
0.00216252960000244
0.002239934485394
0.00232138456065999
0.00238070295065074
0.00241635947046663
0.00243567028539704
0.00244659131961904
0.00244606503038077
0.0024350791019275
0.00241421220917069
0.00238191607850652
0.00232704505549548
0.00225262808852963
0.0021664484386392
0.00207486307840477
0.00198407870820849
0.00190766064758873
0.00186590429779217
0.00185887798046029
0.00188947495196407
0.00197537543952875
0.00212702784096509
0.00227203679671189
0.00217459333612356
0.00187124663695908
0.00149706541406402
0.00128340611150727
0.00167048412261087
0.00163658987061478
0.00145449976841519
0.000930899896632717
0.000493720822368554
0.000401601649024737
0.000522891068679525
0.000623240195436504
0.000623207822291653
0.000620703499974217
0.000630555252504429
0.000645595189888802
0.000666665741157445
0.000699480456054191
0.000753850675389711
0.000833763916238387
0.000938173970028973
0.00106402515358138
0.00120967516147895
0.00137100422098157
0.00154184886914844
0.00171710738123058
0.00189301295224937
0.00206186108656676
0.00221606302470702
0.00235840348502924
0.00250845094043211
0.0027062809801816
0.00298950464754192
0.0032678113192515
0.0034862395935828
0.00367035646420157
0.00383073566535745
0.00397046540724648
0.00409232096692256
0.00419889842617802
0.00429194074194973
0.00437271479282162
0.00444228961041027
0.00450158076357334
0.00455142477047683
0.00459259522867955
0.00462582238571333
0.00465179557856989
0.00467116692146481
0.00468455018587193
0.00469252074133987
0.00469561453544118
0.00469432807542618
0.00468911858138405
0.004680404867087
0.00466856852125228
0.00465395578076338
0.0046368796166898
0.00461762290749316
0.00459644053621358
0.00457356172884549
0.00454919041963377
0.00452350506762243
0.00449666187370905
0.00446879478801337
0.00444001810917397
0.00441043015545964
0.00438011329624571
0.00434913535176394
0.00431755062162527
0.00428540044371958
0.00425271358568622
0.00421950642761804
0.00418578288616285
0.00415153413438263
0.00411673789916099
0.00408135757538227
0.00404534058759998
0.00400861669630243
0.00397109477890455
0.00393266006864668
0.00389316797830887
0.00385244012604997
0.00381025212849655
0.00376633211326473
0.00372031053475863
0.00367181897910007
0.00362077262081801
0.00356673832688776
0.00350855951934133
0.0034448541756199
0.00337376062450865
0.00329288474083543
0.00319864197419637
0.00308488766188363
0.00292990727020845
0.00280466724715619
0.00282503148447003
0.00292059434770889
0.00302827424912828
0.00311335682824645
0.00317051577148222
0.00320737667906503
0.00323298993954253
0.00324379005697438
0.00324007963593071
0.0032223028377247
0.00318816525375888
0.00312440009748446
0.0030342943915391
0.0029280608079261
0.0028144500690659
0.00270194676460962
0.00260817603944182
0.00255911544511429
0.00255581460110019
0.00260118315133726
0.00271562339477197
0.00291097314001137
0.00309492965458733
0.00297648888451976
0.00258266589981945
0.00208732863130461
0.00178362854655267
0.00218678093293484
0.00212306082383455
0.00190201853405465
0.00126773580704616
0.000645653477171863
0.000500376331833702
0.000632026502912521
0.000819754373237577
0.000860845331720284
0.000868055468507386
0.000882988236555881
0.00090124150884991
0.000924655961052273
0.000961399323446622
0.00102487857430499
0.00112051427965489
0.00124646698657691
0.00139832124507997
0.00157342387080567
0.00176627784156611
0.00196935877819875
0.00217690850614858
0.00238479414091176
0.00258459309068631
0.00276896492287529
0.00294314684523669
0.0031311165707659
0.00337846504468554
0.00372154197656792
0.00405591902947838
0.00432087136693278
0.00454491381676394
0.00473974123670659
0.00490949771946126
0.00505785083852239
0.0051877799522013
0.00530135404000904
0.00540009812532462
0.0054852999232107
0.00555806596462819
0.0056194066273907
0.00567025637726591
0.00571149631937327
0.00574395781977393
0.00576842677865819
0.00578564269223167
0.00579629860278767
0.00580104008187221
0.00580046524278918
0.00579512498814851
0.00578552411140009
0.00577212272258454
0.00575533851302009
0.00573554948751282
0.00571309718892198
0.00568828920352297
0.0056614022154335
0.0056326823375976
0.00560234526011443
0.00557057973180602
0.00553754808646921
0.00550338907675225
0.00546822177323228
0.00543214605762951
0.00539524417041593
0.0053575818948739
0.00531920926174489
0.00528016101836149
0.00524045684108129
0.00520010124158506
0.00515908320488013
0.00511737535453555
0.00507493283414719
0.00503169138302234
0.00498756517825169
0.00494244311230942
0.00489618517438588
0.0048486154567872
0.0047995165983309
0.00474861631808239
0.00469558259661556
0.00463997530823665
0.00458131641256556
0.00451933153290669
0.00445348877161294
0.00438250295549981
0.00430472583954847
0.00421792378072242
0.00411918790232607
0.00400418699344954
0.00386572224423945
0.00367887472379908
0.00352377323799873
0.00353702191894069
0.00364794540267475
0.00378193173165442
0.00389524515445798
0.00397765924145213
0.00403621385443688
0.00408056914453221
0.00410663463832164
0.00411381201240499
0.00410219675190888
0.00406859160015876
0.00399778811407715
0.0038932043971359
0.0037674811471706
0.00363198268779916
0.00349778445156979
0.0033868039863721
0.00333076865489813
0.00333206199451905
0.00339356774761411
0.00353780190045018
0.00377719217982119
0.00399892744314239
0.00386092598185502
0.00337674238667816
0.00275688360782891
0.00235577865800718
0.00276466639958055
0.00266460231268315
0.00239879253392251
0.0016703493820295
0.000827419756536429
0.000603867119562251
0.000721922521075595
0.000996121463356106
0.00110769691499155
0.00113607433275919
0.00115995321945967
0.00118317026471722
0.00120945724689374
0.00124984506103172
0.00132171690579154
0.00143232133655011
0.00157919288818705
0.00175659074607555
0.0019607559257932
0.00218479989819392
0.0024199283531415
0.0026598268701279
0.00290007980108026
0.00313184260704796
0.00334839620293977
0.00355747151331996
0.003786891354999
0.00408642873068567
0.00448959394524614
0.00487981514901792
0.0051920196673326
0.00545691997161465
0.00568723392602926
0.00588813577007907
0.00606408065622429
0.0062184192673094
0.00635354274942767
0.00647123406828989
0.00657299976366858
0.00666013825320218
0.00673383428967694
0.00679518360346925
0.00684521827184867
0.00688491170993285
0.0069151835642023
0.00693689906345511
0.00695086902015653
0.0069578488654259
0.0069585387098338
0.0069535836856197
0.00694357527697703
0.00692905297309261
0.00691050695882868
0.00688838145156373
0.00686307749183614
0.006834956697679
0.00680434430053295
0.00677152971486965
0.00673676706130816
0.00670027883986462
0.0066622569751257
0.00662286586503027
0.0065822464442576
0.00654051713903701
0.00649777556918313
0.00645409987872266
0.00640954958122741
0.00636416610534602
0.00631797303416612
0.00627097599074636
0.00622316219006197
0.00617449946899697
0.00612493492944749
0.0060743927257612
0.00602277143393799
0.00596993982706325
0.00591573238338159
0.00585994148775594
0.00580231025700543
0.00574251786165392
0.00568017120707897
0.00561475841516604
0.00554569460013157
0.00547252060276408
0.00539457066212324
0.00531043316680302
0.00521820701138806
0.00511529848935937
0.0049982921428614
0.00486213358490871
0.00469859014135357
0.004480073117145
0.00429423349931599
0.00429653262726706
0.00441941761443494
0.00457870391739462
0.00472166455536022
0.00483231918261285
0.00491620331221024
0.00498301181654817
0.0050280338426273
0.0050495777676561
0.00504716009358429
0.00501652581996536
0.00494070236419728
0.00482313856375952
0.00467883269127314
0.0045219039696059
0.00436628251925485
0.00423834706096466
0.00417553272428505
0.00418183377822309
0.0042601218090392
0.00443450100417366
0.0047172481491962
0.00497479015463721
0.00481833525116493
0.00424573729350823
0.00350036807647991
0.00299629085599647
0.00340259130581453
0.0032605069958138
0.00294361762515102
0.00213797368502826
0.00104889862164588
0.000716998379655369
0.000801111282086593
0.00114023427199936
0.001350250578928
0.00141661536148563
0.00145545851728834
0.00148660683472942
0.00151723145718905
0.0015616240917003
0.00164145929521242
0.00176629286826178
0.00193335469151365
0.00213570373510986
0.00236843184868532
0.00262328349554715
0.00289029349645003
0.00316267418819069
0.00343581691339742
0.00370072487168485
0.00395154962163464
0.00419838944159435
0.00447223141021636
0.00482572743509138
0.0052884407626332
0.00573371880288735
0.00609337360171618
0.00639962807508593
0.00666610870647766
0.00689895687256052
0.00710331710471508
0.00728289870518943
0.00744040646591793
0.00757787767878682
0.00769703477244581
0.00779936600938447
0.00788622817615889
0.00795887586388182
0.00801848952047428
0.00806618199896154
0.00810300413827515
0.0081299445236048
0.00814792960270068
0.00815782283062811
0.00816042480626436
0.00815647370997162
0.00814664687230287
0.00813156263063659
0.00811178360264407
0.00808781991420563
0.00806013236239773
0.00802913696270974
0.00799520789507824
0.00795867842273372
0.00791984180527726
0.00787895510436756
0.00783624072171385
0.00779188964029865
0.00774606559811226
0.00769890648072413
0.00765052617960472
0.00760101605826473
0.00755044592804867
0.00749886466536478
0.007446300473275
0.00739276074203045
0.00733823151125587
0.00728267636178944
0.00722603481843757
0.00716821984823762
0.00710911475719586
0.00704856846595497
0.00698639014891513
0.00692234063970081
0.00685612364745034
0.00678736988993888
0.00671562526218056
0.00664030591085158
0.00656072349512439
0.00647624226128754
0.00638604100329174
0.00628857683119857
0.00618170947658434
0.00606250160721206
0.00592704804385448
0.00576960239932177
0.00558093185323572
0.00533131501432966
0.00511444542242776
0.00510253019389159
0.00523372385841215
0.00541646884297118
0.00558953842508774
0.00573063612304552
0.00584292403946995
0.00593550415019636
0.00600287621389676
0.00604207309053938
0.00605179573047695
0.00602658322229878
0.00594786852358883
0.00581905323619979
0.00565737303357854
0.005479772195792
0.00530324088800043
0.0051587184106505
0.00508920427163458
0.00510049916551103
0.00519552492651957
0.00539956593654309
0.00572417229317268
0.00601507959119877
0.00584112942767803
0.00518336285948683
0.00431356280706521
0.00370259105108147
0.00409948137864441
0.00391035138739677
0.00353636833099613
0.00266730893763745
0.00132065010935691
0.000844912374008268
0.000878139453614455
0.00124766250699147
0.00157472800120722
0.00170130168683288
0.00176391384729696
0.00180736532711238
0.00184480847927547
0.00189427140608426
0.00198198426302048
0.0021203624797387
0.00230680099738804
0.00253338358234597
0.00279406913180295
0.00307929292499131
0.00337802034891342
0.00368305849115608
0.00398969104394895
0.00428899286555998
0.00457612004739741
0.00486328733854124
0.00518391310414843
0.00559231811173133
0.00611337982896043
0.00661242548803764
0.00701923880455198
0.00736691254895117
0.00766988026664799
0.00793515656872846
0.00816848450251364
0.0083739167484117
0.00855445897687372
0.00871239582562575
0.0088496596520526
0.00896792359754507
0.00906871134590162
0.00915343121467193
0.00922340678329654
0.00927988518283843
0.00932404345794638
0.0093569888671626
0.00937975919587153
0.00939332207667612
0.00939857523753449
0.00939634703585678
0.00938739827725757
0.00937242430653368
0.00935205878101864
0.00932687630165844
0.00929739686894842
0.00926409036138802
0.00922737960995292
0.0091876416802046
0.00914520916820692
0.00910037408970428
0.00905338986512913
0.00900447472615629
0.00895381595260212
0.00890157166148597
0.00884787281672436
0.00879282481703865
0.0087365085875402
0.00867898126043085
0.00862027645203795
0.00856040409278357
0.00849934979602514
0.00843707360903097
0.00837350817621769
0.00830855594898389
0.00824208561758294
0.0081739268919842
0.00810386429184204
0.00803162776594411
0.00795688234198626
0.00787921108425729
0.00779809984896235
0.00771289355840175
0.00762280435694936
0.0075270300300195
0.0074245824928538
0.00731378093191939
0.00719225893269895
0.00705675492919544
0.00690289755628566
0.00672428564203944
0.0065107329298084
0.00623089917948381
0.00598321334454854
0.00595442745857219
0.00609026081879473
0.00629401963198539
0.00649681860489015
0.00666978906223501
0.00681295609817525
0.00693418604425542
0.00702695857254788
0.00708685022027671
0.00711151022217185
0.00709413425313392
0.00701471974850072
0.00687656051284443
0.00669897311949974
0.00650173275986553
0.00630502931465828
0.00614438545095805
0.00606812237915947
0.00608396480319616
0.00619500757828918
0.00642746585292075
0.00679183708152513
0.00711348569483894
0.00692301347006574
0.00618427942385713
0.00519289916753502
0.00447267977405004
0.00485452998559452
0.00461386966029224
0.00417759509653439
0.00325371561557238