/*--------------------------------*- C++ -*----------------------------------*\
  =========                 |
  \\      /  F ield         | OpenFOAM: The Open Source CFD Toolbox
   \\    /   O peration     | Website:  https://openfoam.org
    \\  /    A nd           | Version:  7
     \\/     M anipulation  |
\*---------------------------------------------------------------------------*/
FoamFile
{
    version     2.0;
    format      ascii;
    class       surfaceScalarField;
    location    "4000";
    object      phi;
}
// * * * * * * * * * * * * * * * * * * * * * * * * * * * * * * * * * * * * * //

dimensions      [0 3 -1 0 0 0 0];

internalField   nonuniform List<scalar> 
30950
(
9.2444032277417e-05
-1.26406068569539e-05
9.16570192069448e-05
7.87012808203313e-07
3.97008799236276e-05
5.19561432872364e-05
-1.18409171916974e-05
5.15417891224621e-05
-3.24096543362761e-05
2.05687372489959e-05
-2.71415772551311e-05
-5.26807536047557e-06
-2.11019001843557e-05
-6.03967639671686e-06
-1.73302681857575e-05
-3.77163161918937e-06
-1.61006005244244e-05
-1.22966834894755e-06
-1.55964351553374e-05
-5.04165180430756e-07
-1.58059089751357e-05
2.09473832999351e-07
-1.6439435010028e-05
6.33526190071689e-07
-1.74726021324047e-05
1.03316687817837e-06
-1.91474796143482e-05
1.67487758406622e-06
-2.1728554890594e-05
2.58107520578645e-06
-2.52833258696449e-05
3.55477096656182e-06
-2.94467446366739e-05
4.16341873829371e-06
-3.41306064893812e-05
4.68386181902358e-06
-3.91810120484089e-05
5.05040557681728e-06
-4.41873203529439e-05
5.00630824657876e-06
-4.87041856410984e-05
4.51686528815758e-06
-5.30189872743782e-05
4.31480161177286e-06
-5.71997818282449e-05
4.18079456733526e-06
-6.06788610539026e-05
3.47907921591196e-06
-6.32855737554121e-05
2.60671268884868e-06
-6.49606583215774e-05
1.67508453603254e-06
-6.57088279309057e-05
7.48169691557778e-07
-7.85430983878715e-05
1.28342703650962e-05
-9.62467954108281e-05
1.77036970760151e-05
-0.000107714544977867
1.14677494182164e-05
-0.000114558033046812
6.84348807061984e-06
-0.000118523383845369
3.96535080271299e-06
-0.000120480414671038
1.95703086850274e-06
-0.000120876438392005
3.9602378400886e-07
-0.000120028728645993
-8.47709613140019e-07
-0.000118162493848923
-1.86623488512533e-06
-0.00011544924009757
-2.71325372100217e-06
-0.00011202732683817
-3.42191344953701e-06
-0.000108016022423053
-4.01130426387991e-06
-0.000103520955021149
-4.4950674697079e-06
-9.8636342157032e-05
-4.88461276809996e-06
-9.3446780461173e-05
-5.18956180440691e-06
-8.8027644280907e-05
-5.41913602126884e-06
-8.24458567894442e-05
-5.58178752025508e-06
-7.67601855315699e-05
-5.68567121114605e-06
-7.102184168719e-05
-5.73834395289883e-06
-6.52749369526496e-05
-5.74690470245293e-06
-5.95571009922759e-05
-5.71783606874477e-06
-5.39000536467782e-05
-5.65704725155831e-06
-4.83302244826379e-05
-5.56982917217402e-06
-4.28693433326982e-05
-5.46088112360158e-06
-3.7535030180483e-05
-5.33431325055084e-06
-3.2341323123904e-05
-5.19370681989194e-06
-2.72992142840108e-05
-5.04210877744946e-06
-2.24171052067328e-05
-4.88210888726646e-06
-1.77012380758556e-05
-4.71586713321178e-06
-1.3156019000963e-05
-4.54521874614496e-06
-8.78424677201606e-06
-4.37177225429828e-06
-4.58727692204439e-06
-4.19696967413353e-06
-5.65245436909226e-07
-4.02203172534581e-06
3.28199631082414e-06
-3.84724153030408e-06
6.95517805905526e-06
-3.67318193036677e-06
1.04558064127252e-05
-3.50062835609765e-06
1.37853704719781e-05
-3.32956434726864e-06
1.69453420341783e-05
-3.15997165627211e-06
1.99371380220242e-05
-2.99179614220392e-06
2.27619974711943e-05
-2.82485954848813e-06
2.54208766018441e-05
-2.65887914813375e-06
2.79143437438651e-05
-2.49346722882148e-06
3.02424612167445e-05
-2.32811742181738e-06
3.24046837780017e-05
-2.16222263800134e-06
3.43997044934678e-05
-1.99502066376776e-06
3.62253531598501e-05
-1.82564880062174e-06
3.78783549654202e-05
-1.65300177094206e-06
3.9354248506458e-05
-1.47589372181492e-06
4.06469419641003e-05
-1.29269338050924e-06
4.17487399887537e-05
-1.10179807171198e-06
4.26494198144254e-05
-9.00679633933792e-07
4.3336669048643e-05
-6.87249245160465e-07
4.37940450322878e-05
-4.57375875705807e-07
4.40029670661998e-05
-2.08922153212049e-07
4.39386355023285e-05
6.43315795111314e-08
4.35752421609208e-05
3.63393185943192e-07
4.28704173770986e-05
7.04824869777676e-07
4.17808618527882e-05
1.08955548449276e-06
4.02246018094196e-05
1.55626020718063e-06
3.81324254732873e-05
2.09217627319892e-06
3.53478817691843e-05
2.78454380752916e-06
3.17627290511923e-05
3.58515268098078e-06
2.70363505159883e-05
4.726378646617e-06
2.08704370656234e-05
6.16591349173976e-06
1.22211956442992e-05
8.64924140550071e-06
5.37961938814201e-06
6.84157616615293e-06
6.76782537273501e-06
-1.38820590566713e-06
8.61704684699443e-06
-1.84922158419605e-06
1.20730688090726e-05
-3.45602185269639e-06
1.61651066344362e-05
-4.09203782709359e-06
2.11300323795491e-05
-4.96492573283529e-06
2.70873769208695e-05
-5.95734456337496e-06
3.43443359439308e-05
-7.25695901219468e-06
4.19505970080747e-05
-7.60626110140956e-06
4.98689620699005e-05
-7.91836512065852e-06
5.76970174556413e-05
-7.8280555838585e-06
6.50813463711396e-05
-7.38432862870557e-06
7.0484558542355e-05
-5.40321213929911e-06
7.47609477406071e-05
-4.2763891739328e-06
7.8533137491664e-05
-3.7721898226024e-06
8.21881369794054e-05
-3.65500002173723e-06
8.64995986807174e-05
-4.3114611558368e-06
9.33664611471952e-05
-6.86686235514377e-06
0.000105134125363419
-1.17676641878933e-05
0.000120493219843131
-1.53590944361307e-05
0.000140531020387831
-2.00378004974046e-05
0.000169711412378323
-2.91803921179241e-05
0.000205942372856165
-3.62309604911897e-05
0.000225954001900563
-2.00116288313995e-05
0.000182664759392933
4.32892420021146e-05
0.000123928509608734
5.87362511514449e-05
7.77393861386187e-05
4.61891309788887e-05
-2.06404620550969e-06
0.000284168604472169
-2.0545798458035e-05
0.000276962431003467
7.99318595169294e-06
0.000171212220349714
0.000157706356665897
2.26103291231465e-05
0.000200143672670492
-6.40947646553319e-05
0.000107273832406328
-6.78068418425157e-05
-1.55599677977563e-06
-5.51803638318791e-05
-1.86661535306139e-05
-4.71195610742853e-05
-1.18324338729192e-05
-4.44186834760664e-05
-3.93054681706634e-06
-4.4002666282392e-05
-9.20182175008153e-07
-4.53031571465044e-05
1.5099647439097e-06
-4.78551528933133e-05
3.1855221665447e-06
-5.16118734935024e-05
4.78988718701748e-06
-5.7189921683939e-05
7.25292590034724e-06
-6.50857724003904e-05
1.04769258416504e-05
-7.52471450383618e-05
1.37161435993208e-05
-8.68931001759926e-05
1.58093738515853e-05
-9.96970798852349e-05
1.74878414971985e-05
-0.000113187373769391
1.85406994840337e-05
-0.000126553344160177
1.83722785891065e-05
-0.000139173447799195
1.71369689319981e-05
-0.000151356469084032
1.64978228828616e-05
-0.000162879622865741
1.57039483631813e-05
-0.000172749551808287
1.334900815469e-05
-0.000180773315684955
1.06304765590671e-05
-0.00018850136936428
9.40313819701992e-06
-0.000199304878820497
1.15516792041906e-05
-0.00022448118992953
3.80105814185056e-05
-0.000250976447903434
4.41989550837687e-05
-0.000265938905060012
2.64302064837381e-05
-0.000272804193038241
1.3708776051918e-05
-0.000274838392471278
5.99955023910292e-06
-0.000273442199959242
5.60838381908402e-07
-0.00026947200252053
-3.574173619776e-06
-0.000263487019164005
-6.83269289704794e-06
-0.000255882000261027
-9.47125383696838e-06
-0.000246955128745906
-1.16401252201521e-05
-0.000236950530508106
-1.34265117936043e-05
-0.000226073482983377
-1.48883517053809e-05
-0.000214501849709555
-1.6066700781557e-05
-0.000202390742598964
-1.69957198285011e-05
-0.000189876502782334
-1.77038016818155e-05
-0.000177078628201957
-1.82170105176232e-05
-0.000164101696613267
-1.8558719126269e-05
-0.000151036650699531
-1.87507171021854e-05
-0.000137962145473398
-1.8812849239209e-05
-0.000124945680924866
-1.87633692362774e-05
-0.000112044757417724
-1.86187596408954e-05
-9.93079319624195e-05
-1.83938726554816e-05
-8.67758405000165e-05
-1.81019206432368e-05
-7.44821525467102e-05
-1.77545690681968e-05
-6.24544694737522e-05
-1.73619963944678e-05
-5.07151372127747e-05
-1.69330389502315e-05
-3.92820271803638e-05
-1.64752187836982e-05
-2.81692171613001e-05
-1.59949188128692e-05
-1.73875755264274e-05
-1.54975087771038e-05
-6.94502311808673e-06
-1.4987770987949e-05
3.15300824009778e-06
-1.44698036318299e-05
1.29028053449928e-05
-1.39467666902447e-05
2.23027453640735e-05
-1.34219718713192e-05
3.13526121599704e-05
-1.28971082140856e-05
4.0052446887577e-05
-1.23730167519883e-05
4.84026999906237e-05
-1.18508814571343e-05
5.64040861703444e-05
-1.13309506725936e-05
6.40573257184408e-05
-1.08132112479046e-05
7.13629459680809e-05
-1.02974164707862e-05
7.83210721566419e-05
-9.78298578207179e-06
8.4931224270795e-05
-9.26903126820812e-06
9.11921056882659e-05
-8.75434868941089e-06
9.71013738028856e-05
-8.23738550782491e-06
0.000102655401177783
-7.71625005242218e-06
0.000107848984160776
-7.18860362019184e-06
0.000112675045274298
-6.65170998260811e-06
0.000117124214884304
-6.10217136023814e-06
0.000121184438757456
-5.5361176924256e-06
0.000124840307642315
-4.94856222308257e-06
0.000128072540799204
-4.33403125632659e-06
0.000130856802249366
-3.6849409820912e-06
0.000133163091691967
-2.99353869589922e-06
0.000134953557937507
-2.24784206926498e-06
0.00013618163291793
-1.4369971939063e-06
0.000136789330934045
-5.43366426768718e-07
0.000136712295722748
4.4042831034791e-07
0.000135859829948555
1.55729069258619e-06
0.000134114138489651
2.83524691858386e-06
0.000131304832272493
4.36556651136508e-06
0.000127228684026171
6.16832448631142e-06
0.000121569776469065
8.44345142225274e-06
0.000113949043569389
1.12058855586822e-05
0.000103690183076983
1.49852391959186e-05
8.97173404044657e-05
2.01387561871751e-05
7.04087893617121e-05
2.79577924378687e-05
5.45293346756692e-05
2.27210307987322e-05
5.3128584961667e-05
1.25438541924793e-08
5.63448710049206e-05
-5.06550769478102e-06
6.28640968092306e-05
-9.97524759238031e-06
7.11705651087693e-05
-1.23985061285619e-05
8.13429038714378e-05
-1.51372644886205e-05
9.36703962640502e-05
-1.82848369700267e-05
0.000108474734486816
-2.20612972290322e-05
0.000124529486737141
-2.3661013376138e-05
0.00014146263567435
-2.48515140954961e-05
0.000158666626143222
-2.50320461800354e-05
0.000175300207855519
-2.40179101805375e-05
0.000189046717545227
-1.91497218040879e-05
0.000200350386730412
-1.55800583498614e-05
0.000210063696978016
-1.34855001173776e-05
0.000219048156150394
-1.2639459541599e-05
0.00022874484431924
-1.40081489962063e-05
0.000242631700775281
-2.07537187196833e-05
0.000265205795574241
-3.43417589821327e-05
0.000296183805255106
-4.63371040940285e-05
0.000337575906012555
-6.14299012107745e-05
0.000395294347211695
-8.68988334460748e-05
0.000468630699652146
-0.000109567312947207
0.000526369688550961
-7.77506175411933e-05
0.000496817715634718
7.28412144567608e-05
0.000405157198257036
0.000150396769457179
0.000306231587362869
0.000145114746775706
2.79041235170812e-05
0.00043914218926362
-1.16787407747059e-05
0.000427449480294676
1.96858947980646e-05
0.000313698449667996
0.000271457388917459
0.000102680065396784
0.000411162052592074
-6.13798433943064e-05
0.000271333741911767
-9.53572551525347e-05
3.24214162118742e-05
-8.2934008119847e-05
-3.10893997827118e-05
-7.32515948507217e-05
-2.15148467014688e-05
-7.01284464637623e-05
-7.05369587318613e-06
-7.05558875073827e-05
-4.92740999427008e-07
-7.34350688012501e-05
4.38914604984358e-06
-7.82957479017427e-05
8.0462014287327e-06
-8.5079547784389e-05
1.15736868406641e-05
-9.45830718356797e-05
1.67564500318418e-05
-0.000107224341700374
2.31181956389197e-05
-0.000122571845163227
2.90636470530542e-05
-0.000139444827374397
3.26823560412478e-05
-0.00015713180600258
3.51748201010319e-05
-0.000174816083146417
3.62249766378909e-05
-0.000191557443584983
3.5113638995755e-05
-0.000206914414750245
3.24939400973494e-05
-0.000221201911542463
3.07853196644152e-05
-0.000234195299985405
2.86973368113323e-05
-0.000245280560885348
2.44342690502391e-05
-0.000254779555322545
2.01294709907459e-05
-0.000264650779549696
1.92743624123641e-05
-0.000278640470516734
2.55413701973578e-05
-0.000301747359976263
6.11174708488703e-05
-0.000322212866619369
6.46644617418989e-05
-0.000331960145923207
3.61774857428184e-05
-0.000334643103485131
1.63917336152133e-05
-0.000332936242208764
4.2926889640014e-06
-0.00032800605733675
-4.36934647802848e-06
-0.000320651652734459
-1.09285782056761e-05
-0.000311361514469095
-1.61228311287899e-05
-0.000300504837145836
-2.03279311820087e-05
-0.00028836929721075
-2.37756651472857e-05
-0.000275195473268961
-2.66003357819316e-05
-0.000261186971941702
-2.8896852994457e-05
-0.000246521227875006
-3.07324448639107e-05
-0.000231353473239006
-3.21634744411832e-05
-0.000215820393671265
-3.32368812746845e-05
-0.000200042013088286
-3.39953910624454e-05
-0.000184123474112505
-3.4477258107772e-05
-0.000168156350977312
-3.47178402254641e-05
-0.000152219934371101
-3.47492658689898e-05
-0.000136382380750034
-3.46009228487039e-05
-0.000120701839131858
-3.42993012838428e-05
-0.000105227511859754
-3.38681999029096e-05
-9.00006644527779e-05
-3.33287680506979e-05
-7.50555823345551e-05
-3.26996511799357e-05
-6.04204630456045e-05
-3.19971157094536e-05
-4.61182388897087e-05
-3.12352630471154e-05
-3.21673522387414e-05
-3.04261054192146e-05
-1.85824487605921e-05
-2.95798222482974e-05
-5.37487549744486e-06
-2.8705082039749e-05
7.4469669362462e-06
-2.78096133505278e-05
1.98774585945823e-05
-2.69002952949182e-05
3.19132799176068e-05
-2.59825879749297e-05
4.35524674063055e-05
-2.50611594095495e-05
5.47939939538873e-05
-2.41386347156708e-05
6.56375007874152e-05
-2.32165236241385e-05
7.60830026933643e-05
-2.22963833631157e-05
8.61307231727615e-05
-2.13786712136313e-05
9.57808435849593e-05
-2.04633316805115e-05
0.00010503326783725
-1.95498407581877e-05
0.000113887401562118
-1.86371195279358e-05
0.00012234192687778
-1.77235565882675e-05
0.000130394567352168
-1.68069891836508e-05
0.000138041836483387
-1.58846546281944e-05
0.000145278761186717
-1.49531747735245e-05
0.000152098567641345
-1.40084100643787e-05
0.000158492320401719
-1.30454627728711e-05
0.00016444848870994
-1.20583396600554e-05
0.000169952435028441
-1.10400640531711e-05
0.000174985765631698
-9.98189280752695e-06
0.000179525562398012
-8.87382803403319e-06
0.000183543344660202
-7.70272319865159e-06
0.00018700387385581
-6.45406789391464e-06
0.000189863434461596
-5.1074026513704e-06
0.000192068043551392
-3.64160630948229e-06
0.000193550915699319
-2.02623856998259e-06
0.000194230430072208
-2.39086100773112e-07
0.000194000793644214
1.78692714308498e-06
0.000192724274808471
4.11176574410591e-06
0.000190215763310719
6.8740780492643e-06
0.000186232502437682
1.01515853457818e-05
0.000180436766646353
1.42391872407579e-05
0.000172361233940329
1.92814182557535e-05
0.000161317703582494
2.60287695808077e-05
0.000146096918968509
3.53595408135031e-05
0.00012498251166811
4.90721997359781e-05
0.000106387843569366
4.13156988748912e-05
0.000101180784606766
5.21960283906597e-06
0.000103104155589198
-6.98887870633876e-06
0.000109253426263564
-1.6124518236721e-05
0.000118183289640939
-2.1328369505771e-05
0.000129610045461895
-2.65640203052878e-05
0.000143825738824693
-3.25005303380854e-05
0.00016102518150768
-3.92607399080257e-05
0.000180222661953881
-4.28584938319591e-05
0.000200811144233
-4.54399963898725e-05
0.00022217593731792
-4.63968393220385e-05
0.00024331764204645
-4.51596148293697e-05
0.000262113021673223
-3.79451014143154e-05
0.00027841950588504
-3.18865425565727e-05
0.00029296696912874
-2.80329633810922e-05
0.000306679578096932
-2.63520686797301e-05
0.000321035350264144
-2.83639209880612e-05
0.000339599038405036
-3.93174068030811e-05
0.000367207511271736
-6.1950231846072e-05
0.000404701825962982
-8.38314187723955e-05
0.000453843279794531
-0.000110571355015453
0.000519117635594137
-0.000152173189331569
0.000600677472595742
-0.000191127149965327
0.000673486960140003
-0.000150560104974782
0.000675161844994086
7.11663292962061e-05
0.000603404010943863
0.00022215460407803
0.000501848582895302
0.000246670177642323
8.17434567518992e-05
0.000542275130156941
8.12284886645033e-06
0.000528538779836057
3.34222449291134e-05
0.00042786014872494
0.000372136020843745
0.000199367417410766
0.000639654780573092
-2.52150761068349e-05
0.000495916236562839
-0.000103844696062259
0.00011105103677413
-0.000100612301090144
-3.43217941368041e-05
-9.2322804845922e-05
-2.98043425728266e-05
-9.00961537913881e-05
-9.28034750285186e-06
-9.20074666541995e-05
1.41857196420163e-06
-9.67096777213424e-05
9.09135716013296e-06
-0.000103757512735675
1.50940366098802e-05
-0.000113026246234549
2.08424201630846e-05
-0.000125205970598652
2.89361744669086e-05
-0.000140401240213839
3.83134652072319e-05
-0.000157808554752366
4.64709615919034e-05
-0.000176125289805502
5.09990910843178e-05
-0.000194595645547819
5.36451758300209e-05
-0.000212495025378984
5.41243564803141e-05
-0.00022915212220223
5.17707358019816e-05
-0.000244433385587598
4.77752034863767e-05
-0.000258657872815657
4.50098068891858e-05
-0.00027161291706172
4.16523810634469e-05
-0.000282915205895281
3.57365578838857e-05
-0.000292997163954632
3.02114290491001e-05
-0.000303449424102138
2.97266225549573e-05
-0.000317441849547141
3.95337956588702e-05
-0.000336986500632871
8.066212191986e-05
-0.000352665343139986
8.03433042584212e-05
-0.000359247961501025
4.27601040787671e-05
-0.000359739454620337
1.68832267364554e-05
-0.000356192637065519
7.45871410436834e-07
-0.000349579376897654
-1.09826066389172e-05
-0.00034061615666225
-1.9891798432426e-05
-0.000329756805563801
-2.69821822095786e-05
-0.000317355745406935
-3.27289913509519e-05
-0.000303692121726755
-3.74392888238209e-05
-0.0002890025064243
-4.12899511107721e-05
-0.000273488802684103
-4.44105567142709e-05
-0.000257328010186698
-4.68932373705709e-05
-0.000240675655689091
-4.88158289273749e-05
-0.000223669082727361
-5.0243454251247e-05
-0.000206429209780746
-5.12352639898202e-05
-0.000189062162636847
-5.18443052560946e-05
-0.000171660547974179
-5.2119454883482e-05
-0.000154304675855557
-5.21051380019507e-05
-0.000137063693420104
-5.1841905281758e-05
-0.00011999668608533
-5.13663086352771e-05
-0.000103153732711078
-5.07111532654116e-05
-8.65769078676167e-05
-4.99055928973537e-05
-7.03012391303637e-05
-4.89753199174631e-05
-5.43556002517186e-05
-4.79427546094427e-05
-3.87635420625381e-05
-4.68273212073552e-05
-2.35440689289896e-05
-4.56455785493329e-05
-8.71232639727545e-06
-4.44115647633793e-05
5.71996394522199e-06
-4.31373723866432e-05
1.97443596990817e-05
-4.18340090744977e-05
3.33552620649475e-05
-4.05111976667189e-05
4.6549049844742e-05
-3.91763757385288e-05
5.93233780794962e-05
-3.78354876692639e-05
7.16769358763609e-05
-3.6492192491175e-05
8.36091503970515e-05
-3.51487381630283e-05
9.51198357780898e-05
-3.38070687423314e-05
0.000106209005665275
-3.24678411277059e-05
0.000116876622761036
-3.11309487830047e-05
0.000127122349069101
-2.97955670811315e-05
0.000136945317386555
-2.84600878520901e-05
0.000146343896211983
-2.71221354136273e-05
0.000155315445059433
-2.57785380390081e-05
0.000163856054148354
-2.44252637106083e-05
0.000171960254688907
-2.30573753218977e-05
0.000179620697165869
-2.16688525363091e-05
0.000186827770427562
-2.02525360477212e-05
0.000193569165705362
-1.87997349327229e-05
0.000199829329519362
-1.7300227887761e-05
0.000205588830354168
-1.57413936330607e-05
0.000210823515595393
-1.41085132821475e-05
0.000215503545298747
-1.2382752881072e-05
0.000219592018756394
-1.05425413541221e-05
0.000223043451842253
-8.55883572854451e-06
0.00022580161906302
-6.39977354118066e-06
0.000227796250754354
-4.02087025850861e-06
0.000228939848640438
-1.38268400587503e-06
0.000229123088972976
1.60368682169232e-06
0.000228204185707383
5.03066900331796e-06
0.000225998751940129
9.07951183368503e-06
0.000222259018856628
1.3891318422974e-05
0.00021665570314162
1.98425029681301e-05
0.00020871914581198
2.72179755802065e-05
0.000197811455316272
3.69364600862091e-05
0.000182851654825567
5.03193413085787e-05
0.000162257221972331
6.96666325868749e-05
0.000143269796046759
6.03031247893518e-05
0.00013592377857261
1.25656203223528e-05
0.000136475015959906
-7.54011610831845e-06
0.000141795571561432
-2.14450738251864e-05
0.000150508756052022
-3.00415539973463e-05
0.0001621103069947
-3.81655712466529e-05
0.000176816350983551
-4.72065743301322e-05
0.000194719914844227
-5.71643037674296e-05
0.00021498017109202
-6.31187500852574e-05
0.00023690103538366
-6.7360860689801e-05
0.000259860188638227
-6.93559926070227e-05
0.000282813528683828
-6.81129548452374e-05
0.000303860114419093
-5.89916871421303e-05
0.000322612133264996
-5.0638561403021e-05
0.000339699910526357
-4.51207406523775e-05
0.000356024336871816
-4.26764951090593e-05
0.000373018551489882
-4.53581355377482e-05
0.000394039463357718
-6.03383186408236e-05
0.000423731830030398
-9.16425985252664e-05
0.000463498219835289
-0.000123597808575629
0.000514911673365184
-0.000161984808528789
0.000581425174917584
-0.000218686690941951
0.00066336545298269
-0.000273067428039981
0.000739151845317651
-0.000226346497233609
0.00075781744624053
5.25007281671416e-05
0.000708626109970336
0.000271345940643929
0.000621909013846222
0.000333387275291488
0.000141575749266702
0.000615814964297276
3.25664946647353e-05
0.00060041617325396
4.88210359396264e-05
0.000515158605206742
0.000457393589524553
0.000293575576834196
0.00086123780705104
3.15325468983317e-05
0.00075795926690623
-9.40438840585256e-05
0.000236627468268607
-0.000107827035597323
-2.05386421488383e-05
-0.000103125763559685
-3.45056143686091e-05
-0.000102424951772162
-9.98115961157963e-06
-0.000105972070733874
4.96569096851243e-06
-0.00011230807736416
1.542736378901e-05
-0.000121027806468211
2.3813765789979e-05
-0.000131913628938346
3.17282425229169e-05
-0.000145487764215689
4.251030977404e-05
-0.000161653459163755
5.44791601211515e-05
-0.000179529192632591
6.4346695055351e-05
-0.000197978103273477
6.94480017147672e-05
-0.000216381797097723
7.20488696430344e-05
-0.000234165505159437
7.190806454437e-05
-0.000250821527685697
6.84267583155911e-05
-0.000266298337594847
6.32520133949496e-05
-0.000280815693685565
5.95271629752659e-05
-0.00029412523731501
5.49619246941714e-05
-0.000305922223085415
4.75335436520747e-05
-0.000316593160295548
4.08823662566082e-05
-0.000327337043278295
4.04705055326682e-05
-0.000340729555591743
5.29263079805826e-05
-0.000357555413264878
9.7487979582482e-05
-0.00037021663832468
9.30045293227067e-05
-0.000374956960117973
4.7500425856351e-05
-0.000374184532884087
1.61107995033191e-05
-0.000369549940264349
-3.88872120881845e-06
-0.000361919522032743
-1.86130248662226e-05
-0.000351958283287965
-2.98530371716093e-05
-0.000340102301584486
-3.88381639017919e-05
-0.000326699680274734
-4.61316126676592e-05
-0.00031202736702711
-5.21116020687123e-05
-0.000296321962799612
-5.69953553530948e-05
-0.000279786661691978
-6.0945857808951e-05
-0.000262600265414838
-6.4079633652185e-05
-0.000244920352744833
-6.64957415893739e-05
-0.000226886346909428
-6.82774600941419e-05
-0.000208621211322544
-6.95003995636783e-05
-0.000190233007073094
-7.02325095066197e-05
-0.000171816151542604
-7.05363104093911e-05
-0.000153452617833707
-7.04686717177076e-05
-0.00013521306865451
-7.00814544574975e-05
-0.000117157954989011
-6.94214223079116e-05
-9.93385782042189e-05
-6.8530530041183e-05
-8.17980993538435e-05
-6.74460717469248e-05
-6.45725065538278e-05
-6.62009127148302e-05
-4.76915194694435e-05
-6.48237417017441e-05
-3.11794342757921e-05
-6.33394063807145e-05
-1.50559079335851e-05
-6.1769104885251e-05
6.63396919449548e-07
-6.01308696021579e-05
1.59664902396465e-05
-5.84404657053273e-05
3.08448690136864e-05
-5.67123878265336e-05
4.52927025749089e-05
-5.4959031228507e-05
5.93059826057945e-05
-5.31896557572366e-05
7.28820765832139e-05
-5.14115816606267e-05
8.60194455734886e-05
-4.96295614678822e-05
9.87173376228338e-05
-4.78466302240232e-05
0.000110975418522381
-4.60651496420926e-05
0.000122793559147118
-4.42859817711129e-05
0.00013417157959258
-4.25089692352458e-05
0.000145108991094625
-4.07329785943921e-05
0.000155604759740051
-3.89558565043602e-05
0.000165657063573194
-3.71744392486629e-05
0.000175263040428783
-3.53845149010853e-05
0.000184418520352137
-3.35807436310272e-05
0.000193117727347744
-3.17565823232134e-05
0.000201352950697535
-2.99040758835013e-05
0.000209114153311757
-2.80137386711157e-05
0.000216388530420099
-2.6074112038738e-05
0.000223159946951912
-2.40716444325677e-05
0.000229408305328305
-2.19897520034734e-05
0.000235108675268239
-1.9808883225442e-05
0.000240230348755936
-1.75044263544355e-05
0.000244735409069735
-1.50476016681681e-05
0.00024857726800073
-1.2400694652496e-05
0.000251698331958713
-9.52083750633278e-06
0.00025402679665987
-6.34933495804108e-06
0.000255471560619489
-2.82744797706504e-06
0.000255920720738637
1.15452671005018e-06
0.000255231540261117
5.71984947807142e-06
0.000253220996577714
1.10900555295561e-05
0.000249642346003483
1.74699689939447e-05
0.000244175039953961
2.53098090265328e-05
0.000236362993883597
3.50300216484275e-05
0.000225609586415308
4.76898675629275e-05
0.000210970795615095
6.49581321130585e-05
0.000191059625457072
8.95778027450359e-05
0.000172223082559692
7.91396676806846e-05
0.000163728403097406
2.10602997916848e-05
0.000163260033160505
-7.07174617980801e-06
0.000167910276524331
-2.60953171800049e-05
0.000176358682622306
-3.84899600952418e-05
0.000187984694660632
-4.97915832833508e-05
0.000202927245170094
-6.2149124840739e-05
0.000221199560182102
-7.54366187776302e-05
0.000242023122956827
-8.39423128621243e-05
0.000264663467597103
-9.00012053334233e-05
0.000288472839555887
-9.31653645817083e-05
0.000312375986623385
-9.2016101888769e-05
0.00033461271467057
-8.12284151826836e-05
0.000354710840257091
-7.07366869880239e-05
0.000373238453164316
-6.36483535632162e-05
0.000391072522496357
-6.05105644903752e-05
0.000409638031041817
-6.39236440296284e-05
0.000432155609556767
-8.28558971339411e-05
0.000463067055028625
-0.000122554043998009
0.000504033133836975
-0.000164563887381145
0.00055657802179318
-0.000214529696474872
0.00062356788343769
-0.000285676552624332
0.000705000874378158
-0.000354500418990552
0.000780449134717295
-0.000301794757529592
0.000805986428508774
2.69634342363923e-05
0.000770361945727757
0.000306970423631159
0.000697788915572044
0.000405960306498488
0.000199106053724336
0.000674000944550996
5.82649631476195e-05
0.000657420023249938
6.54019570957412e-05
0.000585332607794062
0.000529481005289319
0.000380227199881648
0.00106634321313473
9.81003935540216e-05
0.00104008607396329
-7.13783396899552e-05
0.000406106201733834
-0.000107970477889436
1.60534963819246e-05
-0.000108305140521743
-3.41709515371267e-05
-0.000109156975006246
-9.12932539772559e-06
-0.000114104332327399
9.91304832582918e-06
-0.000121767077730155
2.30901092200286e-05
-0.000131756713184967
3.38034013333996e-05
-0.00014378017661215
4.37517058718976e-05
-0.000158236493903915
5.69666270975905e-05
-0.000174956196522341
7.11988627176989e-05
-0.000193111198076475
8.25016966108905e-05
-0.000211743278310249
8.80800819448799e-05
-0.000230331599178821
9.06371905061078e-05
-0.000248378852642263
8.99553180134446e-05
-0.000265437436592678
8.54853422593749e-05
-0.00028144261211811
7.92571889229342e-05
-0.000296517044272155
7.46015951285211e-05
-0.000310385293462196
6.88301738877417e-05
-0.000322769153247274
5.9917403437816e-05
-0.000333977178740968
5.20903917502854e-05
-0.000344898287903521
5.13916146931465e-05
-0.000357615208040732
6.56432281253368e-05
-0.000372338663047275
0.000112211434582779
-0.000382836559646149
0.000103502425925564
-0.000386269689704276
5.09335559031523e-05
-0.000384585238778389
1.44263485787819e-05
-0.000379145516431695
-9.32844355465212e-06
-0.00037074517603887
-2.70133652555511e-05
-0.000360011121760838
-4.05870914456347e-05
-0.000347368076291138
-5.14812093637253e-05
-0.000333161395516801
-6.03382934473287e-05
-0.000317668519620665
-6.76044779636209e-05
-0.000301127883299285
-7.3535991686172e-05
-0.000283745299393803
-7.83284417054909e-05
-0.000265702365088435
-8.21225679614675e-05
-0.000247159485766484
-8.50386209065553e-05
-0.00022825878452548
-8.71781613416874e-05
-0.000209125765456997
-8.86334186238222e-05
-0.000189870828936954
-8.94874460286373e-05
-0.000170590528019291
-8.98166113253725e-05
-0.000151368762494805
-8.96904372489626e-05
-0.000132277921260704
-8.91722956912882e-05
-0.000113379988969536
-8.83193546070611e-05
-9.47276212807446e-05
-8.71828977251648e-05
-7.63651679002582e-05
-8.58085251293667e-05
-5.83296546489404e-05
-8.42364259675701e-05
-4.06517039386442e-05
-8.25016924230468e-05
-2.33563968646655e-05
-8.06347134422886e-05
-6.46406021609419e-06
-7.86614415326549e-05
1.00091894799437e-05
-7.66041192919694e-05
2.60512125420345e-05
-7.44824887698482e-05
4.1653301006165e-05
-7.2314476279294e-05
5.68092416412632e-05
-7.01149718667344e-05
7.15146988457045e-05
-6.78951129555062e-05
8.57667888054358e-05
-6.56636716306728e-05
9.95637762903719e-05
-6.34265489445349e-05
0.000112904753630365
-6.11876075715464e-05
0.000125789261878212
-5.8949657888997e-05
0.00013821705746441
-5.67137773678315e-05
0.00015018784864495
-5.44797604182107e-05
0.000161701030749752
-5.22461607049537e-05
0.000172755442081825
-5.0010267838566e-05
0.00018334911378565
-4.77681109520091e-05
0.00019347901073425
-4.55144118525721e-05
0.000203140756987963
-4.32424898818124e-05
0.000212328330276153
-4.0944155614478e-05
0.000221033726214505
-3.86094718200569e-05
0.000229246558544065
-3.62265710058517e-05
0.000236953610869391
-3.37811643619704e-05
0.000244138264442333
-3.12562980140288e-05
0.000250779860869427
-2.86313484267319e-05
0.000256852819489955
-2.58818418490486e-05
0.000262325694127445
-2.29773009835749e-05
0.000267159722678842
-1.98816302207229e-05
0.000271307377557809
-1.65483495286957e-05
0.00027470993349165
-1.29233934441677e-05
0.000277294489607902
-8.93389107305383e-06
0.000278968069196355
-4.50102757329054e-06
0.00027961676242862
5.05833482579929e-07
0.000279096902830132
6.23970907382342e-06
0.000277226625305487
1.29603330606338e-05