1.00000000000453e-06 	1.00195556483898 	0 	0.920711352068779 	0.000213773778307146 	1568.9685868311
1.00000000000453e-06 	1.00593833258374 	0 	0.920741909410029 	0.00166879041835401 	705.44928899902
1.00000000000453e-06 	1.01006700077429 	0 	0.920838014224268 	0.00523469677591798 	180.128921353466
1.00000000000453e-06 	1.0143469141712 	0 	0.921055300754148 	0.00975975788870061 	89.8504574359485
1.00000000000453e-06 	1.01878361332929 	0 	0.921424161257508 	0.0136192090066635 	55.3270483412014
1.00000000000453e-06 	1.02338284177015 	-3.46944695195361e-18 	0.921933863451471 	0.016693219782845 	37.0065214518094
1.00000000000453e-06 	1.02815055341735 	-6.93889390390723e-18 	0.922560279279292 	0.0194004585352097 	26.4985808991411
1.00000000000453e-06 	1.03309292030413 	-6.93889390390723e-18 	0.923283208544587 	0.0218828164634793 	20.1313642846729
1.00000000000453e-06 	1.03821634056339 	-6.93889390390723e-18 	0.924087922786051 	0.0241641355355222 	16.0229212259998
1.00000000000453e-06 	1.04352744671036 	-1.04083408558608e-17 	0.924965477306443 	0.0262530732007365 	13.2071554922229
1.00000000000453e-06 	1.04903311422874 	-1.04083408558608e-17 	0.925911322566676 	0.0281626307032474 	11.1766504875421
1.00000000000453e-06 	1.05474047047132 	-6.93889390390723e-18 	0.926923373525551 	0.0299088471920458 	9.65155549970096
1.00000000000453e-06 	1.06065690388671 	-3.46944695195361e-18 	0.928000787970834 	0.0315080260687132 	8.46856493069187
1.00000000000453e-06 	1.06679007358401 	-3.46944695195361e-18 	0.929143344459054 	0.0329752422564481 	7.52713095709912
1.00000000000453e-06 	1.07314791924792 	-6.93889390390723e-18 	0.930351103125734 	0.0343237972454927 	6.76234003230783
1.00000000000453e-06 	1.07973867141705 	-3.46944695195361e-18 	0.931624205063982 	0.0355651473153138 	6.13053806391185
1.00000000000453e-06 	1.08657086213875 	0 	0.932962751814878 	0.0367090297809029 	5.60132545735238
1.00000000000453e-06 	1.09365333601424 	0 	0.934366732348518 	0.0377636537024956 	5.15289123368023
1.00000000000453e-06 	1.10099526164836 	3.46944695195361e-18 	0.935835977548102 	0.0387358963871016 	4.7691800729877
1.00000000000453e-06 	1.10860614351884 	6.93889390390723e-18 	0.937370130824284 	0.0396314828525263 	4.43810886521331
1.00000000000453e-06 	1.11649583428022 	3.46944695195361e-18 	0.938968629803662 	0.0404551413322508 	4.15040736588957
1.00000000000453e-06 	1.12467454751866 	6.93889390390723e-18 	0.940630698066057 	0.0412107348841566 	3.8988425251448
1.00000000000453e-06 	1.13315287097387 	1.73472347597681e-17 	0.942355346532689 	0.0419013719305194 	3.67768573041862
1.00000000000453e-06 	1.1419417802455 	2.08166817117217e-17 	0.944141383150692 	0.0425294991692337 	3.48233806635175
1.00000000000453e-06 	1.15105265300152 	1.38777878078145e-17 	0.945987429087952 	0.0430969801017521 	3.30906099602655
1.00000000000453e-06 	1.1604972837072 	1.04083408558608e-17 	0.947891939343352 	0.043605162051324 	3.15477905014443
1.00000000000453e-06 	1.17028789889366 	1.38777878078145e-17 	0.949853225377653 	0.0440549341970765 	3.01693279562305
1.00000000000453e-06 	1.1804371729856 	1.73472347597681e-17 	0.951869477292397 	0.0444467788704963 	2.89336764739333
1.00000000000453e-06 	1.19095824470904 	2.42861286636753e-17 	0.953938783237848 	0.0447808181414989 	2.78224874303696
1.00000000000453e-06 	1.20186473410003 	2.42861286636753e-17 	0.956059143950882 	0.0450568575310864 	2.68199513432086
1.00000000000453e-06 	1.21317076013637 	2.08166817117217e-17 	0.958228480522013 	0.0452744284910337 	2.59122855903691
1.00000000000453e-06 	1.22489095901542 	2.08166817117217e-17 	0.960444634229818 	0.04543283105654 	2.50873340063287
1.00000000000453e-06 	1.23704050310128 	2.08166817117217e-17 	0.962705359938456 	0.0455311778142527 	2.43342536577368
1.00000000000453e-06 	1.24963512056619 	2.42861286636753e-17 	0.965008317164991 	0.0455684401276916 	2.36432708844517
1.00000000000453e-06 	1.26269111575139 	2.77555756156289e-17 	0.967351060243803 	0.0455434973789852 	2.30054939391461
1.00000000000453e-06 	1.27622539027388 	2.77555756156289e-17 	0.969731026085078 	0.0454551895991938 	2.24127733717621
1.00000000000453e-06 	1.29025546490643 	2.77555756156289e-17 	0.972145520719754 	0.0453023734410657 	2.18576033120476
1.00000000000453e-06 	1.30479950225895 	2.77555756156289e-17 	0.974591708103661 	0.0450839812364394 	2.1333057112872
1.00000000000453e-06 	1.31987633029101 	3.12250225675825e-17 	0.977066603983966 	0.0447990826437095 	2.08327507077748
1.00000000000453e-06 	1.33550546668544 	3.81639164714898e-17 	0.979567075878316 	0.0444469480359943 	2.03508274830864
1.00000000000453e-06 	1.35170714411495 	3.81639164714898e-17 	0.982089848905423 	0.0440271124718336 	1.98819592874792
1.00000000000453e-06 	1.3685023364343 	3.81639164714898e-17 	0.98463151738827 	0.043539438969305 	1.94213590867232
1.00000000000453e-06 	1.38591278583198 	4.16333634234434e-17 	0.987188562431826 	0.0429841799043119 	1.8964801633798
1.00000000000453e-06 	1.40396103097652 	4.16333634234434e-17 	0.989757374761246 	0.0423620354174394 	1.85086490813454
1.00000000000453e-06 	1.42267043619387 	3.81639164714898e-17 	0.992334280890646 	0.041674207549215 	1.80498784614474
1.00000000000453e-06 	1.44206522171365 	3.12250225675825e-17 	0.994915570438878 	0.0409224485711195 	1.75861074878873
1.00000000000453e-06 	1.46217049502345 	3.12250225675825e-17 	0.997497522712063 	0.0401091016100992 	1.71156143064925
1.00000000000453e-06 	1.48301228337162 	2.77555756156289e-17 	1.000076431215 	0.0392371310957787 	1.66373461119002
1.00000000000453e-06 	1.50461756746086 	2.42861286636753e-17 	1.00264862506134 	0.038310140102643 	1.61509118391638
1.00000000000453e-06 	1.52701431637603 	2.77555756156289e-17 	1.00521048616638 	0.0373323715738959 	1.56565556071457
1.00000000000453e-06 	1.55023152379144 	3.46944695195361e-17 	1.00775846114349 	0.0363086906302254 	1.51551096612182
1.00000000000453e-06 	1.57429924550461 	3.81639164714898e-17 	1.010289067222 	0.0352445455293236 	1.46479276194751
1.00000000000453e-06 	1.59924863834497 	3.46944695195361e-17 	1.01279889239828 	0.034145905307601 	1.41368006057126
1.00000000000453e-06 	1.62511200050782 	4.16333634234434e-17 	1.01528459111896 	0.0330191727543916 	1.36238604404795
1.00000000000453e-06 	1.65192281336593 	4.5102810375397e-17 	1.01774287735852 	0.0318710721638208 	1.31114755621675
1.00000000000453e-06 	1.67971578481283 	3.81639164714898e-17 	1.0201705170753 	0.0307085124007534 	1.26021467751727
1.00000000000453e-06 	1.70852689419381 	3.81639164714898e-17 	1.02256432249745 	0.0295384273530352 	1.20984112058153
1.00000000000453e-06 	1.73839343888296 	4.16333634234434e-17 	1.02492115167752 	0.0283675976999611 	1.16027637751845
1.00000000000453e-06 	1.76935408256639 	4.5102810375397e-17 	1.02723791774792 	0.027202459855374 	1.11176054315863
1.00000000000453e-06 	1.80144890529426 	4.85722573273506e-17 	1.02951161209603 	0.026048909698955 	1.06452249892981
1.00000000000453e-06 	1.83471945536634 	4.85722573273506e-17 	1.03173934407004 	0.0249121099235629 	1.01878156313973
1.00000000000453e-06 	1.86920880311829 	4.5102810375397e-17 	1.0339184063955 	0.0237963101266096 	0.974751830150366
1.00000000000453e-06 	1.9049615966783 	5.20417042793042e-17 	1.03604640490236 	0.02270468985998 	0.93264743021789
1.00000000000453e-06 	1.94202411976624 	5.8702771376512e-17 	1.0381211820559 	0.0216392643897749 	0.892686540602684
1.00000000001227e-06 	1.98044435161019 	1.38777878078145e-17 	1.04014046341636 	0.0206009336156549 	0.855095881602781
1.00000000001227e-06 	2.02024009608346 	1.38777878078145e-17 	1.04208647601659 	0.0195978255581685 	0.820382789278258
1.00000000001227e-06 	2.06000503604194 	6.93889390390723e-18 	1.04391282847772 	0.01865222353752 	0.789464398135004
1.00000000001227e-06 	2.09836474743797 	0 	1.04558312756245 	0.0177806586320034 	0.762888889488585
1.00000000001227e-06 	2.13536888877258 	0 	1.04710033230868 	0.0169798276347655 	0.740432138024164
1.00000000001227e-06 	2.17106536369585 	3.46944695195361e-18 	1.0484822368948 	0.0162397385766704 	0.721640235579838
1.00000000001227e-06 	2.20550038302045 	3.46944695195361e-18 	1.04974417671141 	0.0155522451050611 	0.706135236974986
1.00000000001227e-06 	2.23871852454379 	-6.93889390390723e-18 	1.05089931313684 	0.0149107745696355 	0.693611322382855
1.00000000001227e-06 	2.27076279075614 	-1.38777878078145e-17 	1.05195903485966 	0.0143100535577152 	0.683828920056151
1.00000000001227e-06 	2.30167466450941 	-1.38777878078145e-17 	1.052933226557 	0.0137458583904232 	0.67660791808535
1.00000000001227e-06 	2.33149416271873 	-1.04083408558608e-17 	1.05383049138029 	0.013214801462789 	0.671820789387907
1.00000000001227e-06 	2.36025988816627 	-1.04083408558608e-17 	1.0546583395563 	0.0127141556204907 	0.66938631325515
1.00000000001227e-06 	2.38800907947441 	-1.38777878078145e-17 	1.05542334582238 	0.0122417142219914 	0.669264353859133
1.00000000001227e-06 	2.41477765931296 	-1.38777878078145e-17 	1.05613128140074 	0.0117956823800984 	0.671451922500049
1.00000000001227e-06 	2.44060028090273 	-1.38777878078145e-17 	1.05678722547576 	0.0113745941581997 	0.675980567554757
1.00000000001227e-06 	2.46551037287587 	-1.38777878078145e-17 	1.05739565991198 	0.0109772506026016 	0.682915022071324
1.00000000001227e-06 	2.48954018255081 	-1.38777878078145e-17 	1.05796055010611 	0.0106026740135262 	0.692352983558783
1.00000000001227e-06 	2.512720817678 	-1.38777878078145e-17 	1.05848541425924 	0.0102500745308373 	0.704425883610888
1.00000000001227e-06 	2.53508228671037 	-1.38777878078145e-17 	1.05897338290952 	0.00991882578075868 	0.719300506988469
1.00000000001227e-06 	2.55665353765073 	-1.04083408558608e-17 	1.05942725023941 	0.00960844691442914 	0.737181325520663
1.00000000001227e-06 	2.57746249552637 	-1.04083408558608e-17 	1.05984951842373 	0.00931858883317439 	0.758313411288809
1.00000000001227e-06 	2.59753609853934 	-1.04083408558608e-17 	1.0602424360887 	0.00904902273303413 	0.782985779437563
1.00000000001227e-06 	2.6169003329393 	-6.93889390390723e-18 	1.06060803178775 	0.00879962932407525 	0.811534979839313
1.00000000001227e-06 	2.6355802666639 	-1.38777878078145e-17 	1.06094814325714 	0.00857038721176989 	0.844348707363318
1.00000000001227e-06 	2.6536000817905 	-2.08166817117217e-17 	1.06126444308565 	0.00836135900138739 	0.881869134128397
1.00000000001227e-06 	2.67098310584103 	-2.08166817117217e-17 	1.06155846131382 	0.00817267374525082 	0.92459558930786
1.00000000001227e-06 	2.68775184198057 	-2.77555756156289e-17 	1.06183160536675 	0.00800450445102888 	0.973086134067751
1.00000000001227e-06 	2.7039279981488 	-3.46944695195361e-17 	1.06208517762068 	0.00785703957090024 	1.02795752007515
1.00000000001227e-06 	2.71953251516198 	-3.46944695195361e-17 	1.06232039080898 	0.00773044776444671 	1.08988300778519
1.00000000001227e-06 	2.73458559382185 	-3.46944695195361e-17 	1.06253838139249 	0.00762483583205278 	1.15958759188125
1.00000000001227e-06 	2.74910672106653 	-3.46944695195361e-17 	1.06274022095891 	0.00754020058114815 	1.2378403765907
1.00000000001227e-06 	2.76311469519732 	-3.46944695195361e-17 	1.06292692568264 	0.00747637649098827 	1.32544419953844
1.00000000001227e-06 	2.776627650214 	-3.46944695195361e-17 	1.06309946387646 	0.00743298228054744 	1.42322313831215
1.00000000001227e-06 	2.78966307929018 	-3.46944695195361e-17 	1.06325876169955 	0.00740937066794815 	1.53200923584486
1.00000000001227e-06 	2.80223785741905 	-3.81639164714898e-17 	1.06340570714795 	0.00740458647740012 	1.65263059303364
1.00000000001227e-06 	2.81436826325886 	-4.5102810375397e-17 	1.0635411525294 	0.00741733852121507 	1.78590380123978
1.00000000001227e-06 	2.82607000020648 	-4.85722573273506e-17 	1.0636659156959 	0.00744599014246711 	1.93263439995343
1.00000000001227e-06 	2.83735821672614 	-5.55111512312578e-17 	1.0637807803552 	0.00748857187715041 	2.09362953200155
1.00000000001227e-06 	2.8482475259599 	-6.24500451351651e-17 	1.06388649579068 	0.00754281751242902 	2.26972717006976
1.00000000001227e-06 	2.85875202464506 	-6.24500451351651e-17 	1.06398377628395 	0.007606222203282 	2.46184623821368
1.00000000001227e-06 	2.86888531136304 	-6.24500451351651e-17 	1.06407330046131 	0.00767611870910311 	2.67106180303304
1.00000000001227e-06 	2.87866050414343 	-6.24500451351651e-17 	1.06415571069099 	0.00774976567656734 	2.89870953438778
1.00000000001227e-06 	2.88809025744591 	-6.24500451351651e-17 	1.06423161255957 	0.00782444056635187 	3.14652421552303
1.00000000001227e-06 	2.89718677854204 	-6.24500451351651e-17 	1.06430157437388 	0.00789752945021652 	3.41681869423532
1.00000000001227e-06 	2.90596184331819 	-6.24500451351651e-17 	1.06436612657587 	0.00796660643148025 	3.71271289828532
1.00000000001227e-06 	2.91442681151997 	-6.59194920871187e-17 	1.0644257609301 	0.00802949662465046 	4.03842815630134
1.00000000001227e-06 	2.92259264145801 	-6.93889390390723e-17 	1.06448092934042 	0.00808431810158163 	4.39967117001399
1.00000000001227e-06 	2.93046990419395 	-7.28583859910259e-17 	1.06453204217284 	0.00812949952901141 	4.80414630344975
1.00000000001227e-06 	2.93806879722526 	-7.63278329429795e-17 	1.06457946599972 	0.00816377088264911 	5.26225727919937
1.00000000001227e-06 	2.94539915768639 	-7.28583859910259e-17 	1.06462352073489 	0.00818612401732368 	5.78809491090783
1.00000000001227e-06 	2.95247047508335 	-6.93889390390723e-17 	1.06466447619471 	0.00819573714240663 	6.40086505685647
1.00000000001227e-06 	2.9592919035784 	-6.93889390390723e-17 	1.06470254822963 	0.00819185098162654 	7.12700674034286
1.00000000001227e-06 	2.96587227384056 	-6.93889390390723e-17 	1.06473789492106 	0.00817357201990704 	8.0034146099581
1.00000000001227e-06 	2.97222010447726 	-7.28583859910259e-17 	1.06477061364497 	0.00813955492285189 	9.08247119631181
1.00000000001227e-06 	2.97834361306218 	-7.97972798949331e-17 	1.06480073688068 	0.00808747283704592 	10.4401312889001
1.00000000001227e-06 	2.98425072677325 	-7.97972798949331e-17 	1.06482822099721 	0.00801310412908311 	12.1893385363815
1.00000000001227e-06 	2.98994909265478 	-7.63278329429795e-17 	1.06485297657213 	0.00790871987265858 	14.503179960789
1.00000000001227e-06 	2.99544608751689 	-7.63278329429795e-17 	1.06487505860832 	0.00775888652048896 	17.6590547675214
1.00000000001227e-06 	3.00074882748522 	-7.97972798949331e-17 	1.06489456397356 	0.0075317206761961 	22.1200517221213
1.00000000001227e-06 	3.00586417721304 	-8.67361737988404e-17 	1.06491108106824 	0.00716520654692598 	28.6672068883395
1.00000000001227e-06 	3.01079875876789 	-9.0205620750794e-17 	1.06492389370667 	0.00654774724215162 	38.6593545649134
1.00000000001227e-06 	3.01555896020418 	-9.0205620750794e-17 	1.06493276816785 	0.00550536089839618 	54.8259076954655
1.00000000001227e-06 	3.02015094383281 	-9.71445146547012e-17 	1.064938129445 	0.00386853295020212 	84.8920158923858
1.00000000001227e-06 	3.02458065419862 	-1.00613961606655e-16 	1.06494090095764 	0.00194308122172386 	167.468034219214
1.00000000001227e-06 	3.02885382577583 	-1.04083408558608e-16 	1.06494215710422 	0.000570465136102794 	657.83983859524
