/*--------------------------------*- C++ -*----------------------------------*\
  =========                 |
  \\      /  F ield         | OpenFOAM: The Open Source CFD Toolbox
   \\    /   O peration     | Website:  https://openfoam.org
    \\  /    A nd           | Version:  7
     \\/     M anipulation  |
\*---------------------------------------------------------------------------*/
FoamFile
{
    version     2.0;
    format      ascii;
    class       volScalarField;
    location    "2000";
    object      kDeficit;
}
// * * * * * * * * * * * * * * * * * * * * * * * * * * * * * * * * * * * * * //

dimensions      [0 2 -3 0 0 0 0];

internalField   nonuniform List<scalar> 
15600
(
0.00213922666482674
0.00177981639222663
0.000904949228545184
0.000288036833721006
3.62383613143258e-05
7.26684998561324e-06
5.87463256358255e-06
3.77610940431266e-06
3.13130397209358e-06
2.53922149684797e-06
2.20808390888096e-06
2.16171754325385e-06
2.37167422676422e-06
2.84080664134886e-06
3.71410220498985e-06
5.14816068709732e-06
7.27710886329367e-06
1.00816851685394e-05
1.35541830115523e-05
1.75821022045064e-05
2.19013849151118e-05
2.61916017977295e-05
3.05543135177132e-05
3.48623634603382e-05
3.85964739465583e-05
4.13442680546876e-05
4.35683758531863e-05
4.68173102236088e-05
6.14903172093921e-05
8.60422134863171e-05
0.000110852832088124
0.000135792209218995
0.00016080201449871
0.000185827105402236
0.000210879650479571
0.000235992930638671
0.000261158688341876
0.000286359537168486
0.00031154315157481
0.000336640401557835
0.000361561889019285
0.000386208100626975
0.00041047775334114
0.000434282341001224
0.000457572214797122
0.000480357154885589
0.000502652989089675
0.000524227011350863
0.000544024973094002
0.000561908320317197
0.000578109366582082
0.00059251889769006
0.000605066757059714
0.00061570818157919
0.000624424602321429
0.000631222570446503
0.000636131738859044
0.000639202419058784
0.000640502738054123
0.000640115669977412
0.000638136071961205
0.000634667787167707
0.000629820912293524
0.000623709430655571
0.000616448697463041
0.000608153570362915
0.0005989365721927
0.000588906468564229
0.000578166705590315
0.000566814287581351
0.000554938650745973
0.000542620860833603
0.000529933880928365
0.000516943906131736
0.000503709603861371
0.000490281287974235
0.000476701952389004
0.000463003871797878
0.000449211440799587
0.000435333742799178
0.000421371670131248
0.000407299793860426
0.000393085690447418
0.0003786451526076
0.000363893497293257
0.000348637894710187
0.000332714600094497
0.000315726581783839
0.000297412988599596
0.000277035887762962
0.000254477458802608
0.000226908582489018
0.000206949581925645
0.000216218505044069
0.000237117587738453
0.000270617261431658
0.000311862196094183
0.000364169115215874
0.000429547840220054
0.00051283038914018
0.00060759767663978
0.000711493737610063
0.000818964109917912
0.0009255021879633
0.00101355500922446
0.00109329775120561
0.00117821051960825
0.00127752533187716
0.00140520870427162
0.00158873816494687
0.00188604808783211
0.0022795067982749
0.0028041509486281
0.00352918716058326
0.00445014089562766
0.00509013651089794
0.00402857123140901
0.00290482963453118
0.00220449130808088
0.00220967913171449
0.0120910479507069
0.0101020442342345
0.0055313628704737
0.00171907950824799
0.000218187127122411
4.28580822115901e-05
3.26657739069544e-05
2.10047781490341e-05
1.73149828405377e-05
1.40343816710929e-05
1.21526264539429e-05
1.18298242248789e-05
1.29172830425318e-05
1.54348598588808e-05
2.0154572087691e-05
2.79524683984703e-05
3.95853022308766e-05
5.49865901922366e-05
7.41027555685847e-05
9.62674580820831e-05
0.000119962137015198
0.000143514342648717
0.000167353287940566
0.000191201708172843
0.000212559849008935
0.000228688528754474
0.000242283236560747
0.000269862610334745
0.000363047444052025
0.000503103839069507
0.000642732012923401
0.000781762927054824
0.000920286918110514
0.00105804423609503
0.00119522739363002
0.00133188136959957
0.00146788312071869
0.00160298583164075
0.00173678911215344
0.00186879946985991
0.001998446443141
0.00212513372445058
0.00224829251848856
0.00236746351744357
0.0024824244996393
0.00259328714743692
0.00270037310057878
0.00280361481709064
0.00289790511762203
0.00298363026087298
0.00306013431656193
0.0031270714889063
0.00318426873026626
0.00323167565964419
0.0032693618267525
0.00329750644371269
0.00331638479622758
0.00332635388430166
0.00332783736039134
0.00332131093389339
0.00330728867561623
0.00328631033560131
0.00325892994765528
0.00322570644660561
0.00318719378291568
0.00314393412156115
0.00309645111181526
0.00304524498658431
0.00299078681699957
0.00293351444610726
0.0028738285610606
0.00281208934800383
0.00274861893316259
0.0026837081597702
0.00261761312358394
0.00255055166818661
0.00248270821743247
0.00241421692747271
0.00234517561589651
0.00227560781662753
0.00220549852286339
0.00213470091587703
0.00206303478741455
0.0019900545662016
0.00191531371824188
0.00183780250299715
0.0017566604916866
0.00166979909193019
0.00157582145693905
0.00147076433948046
0.0013549276508756
0.00121707240086827
0.00111727558066356
0.00116223062201394
0.00127466977745667
0.00145549475545499
0.00167813179785688
0.00196118772410684
0.00231526269116761
0.00276522665160056
0.00327547380791963
0.00383493393819933
0.00441421468744571
0.00498898670252265
0.00546825910549819
0.00591211805650794
0.00639177188029561
0.00695646101508921
0.00768641368363443
0.00873959767605806
0.0104353482993043
0.0126704710507932
0.0156626770908775
0.0197795212522132
0.0248811744438767
0.0283681765837992
0.0244869056430605
0.0188483708913487
0.0141245709893531
0.0128210552474906
0.0289378302863971
0.0238689286057154
0.0144166932668864
0.00467952968379898
0.000598537568644225
0.000111189009532727
7.90786546921348e-05
5.11034808208808e-05
4.2024777479151e-05
3.40919358034043e-05
2.9460134297571e-05
2.85742167689798e-05
3.10973627359464e-05
3.7037512475962e-05
4.82467017564429e-05
6.68416002529462e-05
9.46518841337713e-05
0.000131469412852931
0.000176957787340477
0.000229265334619416
0.000284625632098879
0.000339122956054265
0.000393774277531231
0.000448171205491176
0.0004961527827003
0.000538094800475152
0.000586450248778996
0.00066319044123813
0.000866801656666926
0.00114291879488615
0.00140084288605197
0.00164343610215858
0.0018739196695356
0.00209351619763036
0.00230393867779916
0.00250622031566138
0.00270105890381796
0.00288886877051078
0.00306983386927068
0.00324399579403917
0.00341129551701815
0.00357163225934051
0.00372492669388756
0.00387122235746777
0.0040108997796024
0.0041446470284764
0.00426938147470517
0.00437912546828609
0.00447870735771162
0.00456820289632503
0.00464721541192843
0.00471574680537006
0.00477386464901382
0.00482170915057132
0.00485949012227241
0.00488748074015452
0.00490600968132298
0.00491545279537849
0.00491622445774391
0.00490876919141759
0.00489355372932229
0.00487105955095214
0.00484177618586793
0.00480619521653642
0.00476480394495127
0.00471808053720391
0.00466648932505647
0.00461047675576761
0.00455046688836045
0.00448685760104713
0.00442001634297873
0.00435027720686732
0.00427794048673255
0.00420327696096784
0.00412652516026911
0.00404788733247013
0.00396752990015595
0.00388557048031997
0.00380207973077483
0.00371705398604504
0.00363042409588524
0.00354198870156585
0.00345145239811896
0.00335825259291791
0.00326169655810202
0.00316050996134757
0.00305331412102209
0.00293736842196002
0.00281019355380671
0.00266574432239049
0.00250032944527158
0.00229193227229298
0.00213656318951465
0.00220597345468487
0.00238988697852798
0.00268603806085799
0.00306784604918925
0.00355646780478519
0.0041732237159813
0.00494493642494752
0.00583039591186438
0.00680831449751013
0.00784431789805622
0.00890275461877778
0.00988742225592324
0.010866294109989
0.0119430717628828
0.0132069631675817
0.0147824688077768
0.0169067045823476
0.0199862670079874
0.023879984978553
0.0286681935057984
0.0343553364172352
0.0403286301191507
0.044422969470171
0.0421443703105193
0.0385091332577365
0.0346416118358919
0.0322805443864123
0.0344774078404569
0.0293150559565822
0.0218861134728397
0.00986154489928418
0.00133110153066436
0.00020837143233305
0.000133177976658471
8.72637218189233e-05
7.2033505580315e-05
5.86774805824602e-05
5.08129092799426e-05
4.93363856897315e-05
5.37741844504476e-05
6.42255073381591e-05
8.38996897261457e-05
0.000116255013326712
0.000163591812958802
0.00022409001964924
0.000294823073550085
0.000370450104741285
0.000444285181925218
0.000512025655509487
0.000576584313612088
0.000640201057619398
0.000702889919321371
0.000772186174461482
0.000857243230089706
0.000964175844883615
0.00115628534343054
0.00138887278015646
0.0015995075505994
0.00179510828114456
0.00198040081903291
0.00215699569742915
0.00232659267268286
0.00249012097517028
0.00264821228739032
0.00280121763552956
0.00294929161497817
0.00309244868667731
0.00323060424463374
0.00336361819963522
0.00349134274044462
0.0036136454066485
0.00373013133923431
0.00383814694623168
0.00393680983625136
0.00402537668904003
0.00410636565036796
0.00417941156857937
0.00424428628902601
0.004300981314925
0.00434952799224681
0.00439001663728192
0.00442259201165031
0.00444744856928127
0.00446482465445152
0.00447499620796568
0.00447827029488534
0.00447497877475211
0.00446547223769103
0.0044501143173904
0.00442927650600941
0.00440333334947452
0.00437265774970729
0.00433761689823244
0.00429856864623556
0.00425585820096511
0.00420981499529421
0.00416074989375209
0.00410895216897608
0.00405468766957526
0.00399819673795636
0.00393969535132051
0.00387937432654464
0.00381739681268871
0.00375389681494234
0.00368897374636239
0.00362268780652991
0.00355504994676085
0.00348601309923398
0.00341545007192648
0.00334314091818719
0.00326871567290801
0.00319164954759736
0.00311110568804484
0.00302602061363024
0.00293458390132981
0.0028347997593893
0.00272239225845015
0.0025914959094974
0.00242473533442542
0.00229500225324092
0.00233751942575418
0.00249464686795247
0.00275622060307411
0.00310873075341942
0.00356261771932812
0.00413605901253947
0.00484220454687865
0.0056557518951395
0.00655587067666073
0.0075199984949702
0.00852132472953638
0.00951525103948369
0.0105458234469603
0.0116920565431697
0.0130352979359977
0.0146729973182812
0.0167640003364855
0.0194991103376672
0.0227518915367454
0.0263901228121293
0.0301337317931889
0.0335294736717456
0.0360102045537387
0.0360089350001153
0.0349241953072765
0.0358286924985069
0.0368938476265425
0.0304264355656598
0.0271065030077207
0.0237852753673582
0.0152825145824889
0.00286283725166851
0.000341453163299779
0.000182862702144672
0.000122724094271247
0.000102665443057798
8.44998450293513e-05
7.38080472622894e-05
7.22052864840377e-05
7.92828850181888e-05
9.54199899018009e-05
0.000124838473970576
0.00017085673321889
0.000233036815454934
0.000304655944675753
0.000378508433013903
0.000448015521502323
0.0005095472564598
0.00056417881984782
0.000617847146227534
0.000675641938933241
0.000742006124524431
0.000823518615978776
0.00092204155424196
0.00103675241432974
0.00119201209126998
0.00136727968356822
0.00153265526856445
0.00169081368671271
0.0018433442661923
0.00199060311129924
0.00213326998659275
0.00227168543739173
0.0024060791892906
0.00253653478818766
0.00266303007027368
0.00278545914609963
0.00290365495289509
0.00301740855759385
0.00312646693457242
0.00323039810743548
0.00332788292264738
0.00341805854829282
0.00350070528047322
0.00357583019667955
0.00364453423981706
0.00370648815333844
0.00376156984599422
0.00380977032244213
0.00385111675486284
0.00388568522090028
0.00391359663367877
0.00393501290320376
0.00395013229035627
0.00395918430878547
0.00396242448569022
0.00396012919601444
0.00395259068283599
0.00394011238102292
0.00392300459185843
0.0039015804672072
0.00387615219110309
0.00384702750264162
0.00381450667254393
0.00377887975111979
0.00374042414369124
0.0036994024117084
0.00365606007090347
0.00361062413217763
0.00356330086277691
0.00351427561384533
0.00346371271188454
0.00341175392316486
0.00335851674678954
0.0033040918936753
0.00324853801002397
0.0031918777501401
0.0031340864155958
0.00307508546039368
0.0030147193045605
0.00295273985486239
0.0028887644571356
0.00282223111761221
0.00275235722035611
0.00267793303614214
0.00259746008507547
0.00250801422601267
0.00240451985493073
0.00227551420500516
0.00217105201330674
0.00218933989582738
0.00231197943006755
0.00252515875740039
0.00281961788553917
0.00319973026406312
0.00367775313963522
0.00425962660787192
0.00492889865030226
0.00566809136581111
0.00646090214891881
0.00728796198452837
0.00812803585898582
0.00900864484275309
0.00998333323191135
0.0111127324439475
0.0124649937909207
0.0141371993915138
0.0162139355581984
0.0186150519882361
0.0212108695710447
0.0237627884974693
0.0260035300316553
0.0277943428691562
0.0287294288071956
0.0285580328803057
0.0297893022925372
0.031309412030197
0.0254364074799091
0.0234687946190901
0.0224144951068196
0.0189587746240207
0.00541666294591361
0.000545658012597424
0.000216977093333892
0.000149396598369284
0.000128160046925752
0.000107536259753715
9.54977458290788e-05
9.4714765247036e-05
0.000105030940828193
0.000126954393637915
0.000164048839614222
0.000216671268299806
0.000279667822574629
0.00034384915150088
0.000403442527495158
0.000456277999294848
0.000503526300605124
0.000548909572078372
0.000597814149330445
0.000655009998277656
0.000724794483842587
0.000810732949819291
0.000912022368516294
0.00102701509482377
0.00116299015709594
0.00130965937183989
0.00145195569482552
0.00159005918271086
0.00172415030463105
0.0018542442853787
0.00198062011446777
0.00210341884740861
0.00222271932370383
0.00233851267556367
0.00245071914081293
0.00255919982145417
0.0026637677453982
0.00276418800871783
0.002860129953843
0.00295097152293783
0.00303589474968903
0.00311457279618255
0.00318690493229829
0.00325301351521793
0.0033133776333438
0.00336775480953746
0.00341607282250816
0.00345832610600927
0.00349454346214718
0.00352479539307334
0.0035491908595051
0.00356787408709375
0.00358102068201607
0.00358883331190303
0.00359153724143543
0.00358937589079908
0.00358260653198928
0.00357149623043875
0.00355631805524979
0.00353734757628521
0.00351485956846306
0.00348912493925459
0.00346040808031631
0.0034289644832593
0.00339503870818659
0.00335886254438607
0.00332065330353309
0.00328061251577586
0.00323892386769366
0.00319575245194643
0.00315124487980423
0.00310552836210564
0.00305870912993734
0.00301087117693697
0.00296207153411585
0.00291233868125586
0.00286166200437305
0.00280999104413363
0.00275721227457695
0.00270314876832719
0.00264751298710067
0.00258990285989895
0.00252972478168538
0.00246611214866899
0.00239791153553301
0.00232299540610509
0.00223734174448979
0.00213344980641681
0.00204644529501387
0.00205054019283325
0.00214808427310034
0.00232574173177566
0.00257565310266799
0.00289915494392037
0.00330418761585119
0.00379310512837689
0.00435382817154157
0.00497174128724755
0.00563383948530326
0.00632544905200748
0.00703550512710926
0.00778316213590034
0.00860621568832301
0.00954987005463124
0.0106639262513411
0.0120127712948494
0.0136394061751448
0.0154929969239708
0.0174758436169593
0.0194072297327769
0.0211024549539764
0.0225037450312945
0.0236011352762955
0.0239018830835211
0.0247488979944444
0.0257171202285434
0.021546604112625
0.0203012221007777
0.0200420229687767
0.0205106946018744
0.00858730715881009
0.000914068232990199
0.00023592268523917
0.000160987563482767
0.000142981150003521
0.000123417646269959
0.000112193092811177
0.000113177238928865
0.000126517355533619
0.000152314372434554
0.000191966858012063
0.000242601622102866
0.000297338046310245
0.00034923964868233
0.00039608043404874
0.000438657134008935
0.000479597655670137
0.000522491410307987
0.000571478202098217
0.000630457139264769
0.000702708960158195
0.000790015770749076
0.000891345656852199
0.00100505294912006
0.00113120100126851
0.00126282001560747
0.00139168769048426
0.00151731674072301
0.0016394806509537
0.00175816878425777
0.00187350255107652
0.0019855552036589
0.00209434473597867
0.00219983013579323
0.00230191434189563
0.00240045291565581
0.00249525677443824
0.00258608091084166
0.00267257355879962
0.00275415671650493
0.00283041288011034
0.00290114007637047
0.00296628904160862
0.00302596022637095
0.00308035489864889
0.00312929817096946
0.00317274221472651
0.00321068490630977
0.00324315664679925
0.00327022446526511
0.00329198950770603
0.00330858431408635
0.0033201694658541
0.00332692979921973
0.00332907045568253
0.00332681291560004
0.00332039113592149
0.00331004788906151
0.00329603132177943
0.00327859179212867
0.00325797890601365
0.00323443872163504
0.00320821134694846
0.0031795288027126
0.00314861322974463
0.00311567528433229
0.00308091273584728
0.00304450926054629
0.00300663258647381
0.00296743348755485
0.00292704596593802
0.00288558674774994
0.00284315391740029
0.00279982629937161
0.00275565947146756
0.00271068523875954
0.0026649025543831
0.00261827916839261
0.00257073108862933
0.00252212850748658
0.00247225217636079
0.00242080125347229
0.00236731746923178
0.00231115348278261
0.00225140579878998
0.00218645505844781
0.00211314109239511
0.00202653121205137
0.00195210951059431
0.00194814383791983
0.00202775333595932
0.00217978427340305
0.002397136340463
0.00267947432759288
0.0030317843508875
0.00345439900134732
0.0039376192367519
0.00446898773077959
0.00503757626941027
0.00563188733480229
0.00624609740952267
0.00689505116369389
0.00760707690154686
0.00841713808177114
0.00936374077024816
0.0104933073145865
0.0118305469723399
0.0133408969412325
0.0149510420499702
0.0165193054284523
0.0178983567413834
0.0190375749875102
0.0200424877243882
0.0205536745996378
0.0212101966740207
0.0217335726260275
0.018714711460313
0.0178441998210577
0.0177153484149925
0.0204253451276812
0.0116131501544305
0.00160232723800624
0.000260520000776228
0.000158887593013876
0.000146009932082127
0.000130400651374827
0.000121760861847912
0.000125003246407869
0.000140553895306048
0.000167865122821454
0.00020629974399087
0.000251590945054879
0.000297776013604705
0.000340799573880608
0.00038044943494818
0.000418438060966237
0.000457447124339529
0.000500534288098279
0.000550973255530843
0.000611912859466363
0.000685767161352658
0.000773524028678738
0.000874467322726698
0.000986658469746945
0.00110663106685476
0.0012288862068618
0.00134882534116407
0.00146586525373844
0.00157966960705328
0.00169024891850876
0.001797648578721
0.00190191469960233
0.00200303786796605
0.00210096692531521
0.00219560238865169
0.00228680392445445
0.00237438781537569
0.00245811122794498
0.00253763182365455
0.00261252771164742
0.00268253669480702
0.00274752073891438
0.00280744733087594
0.00286237425195005
0.00291237213508219
0.00295731212138132
0.0029971589880307
0.00303191303299908
0.00306160528101268
0.00308629980254987
0.00310609177919747
0.00312110513958838
0.00313148959356086
0.00313741722101957
0.00313907887565299
0.00313668053797769
0.00313043974722876
0.00312058220009067
0.00310733853883603
0.00309094141489706
0.00307162274182982
0.00304961108895168
0.00302512944356304
0.00299839324175018
0.00296960872729282
0.00293897150686658
0.00290666534014303
0.00287286101070419
0.00283771463787301
0.00280136657594568
0.00276394162213357
0.00272554880214681
0.00268628023694045
0.00264621088444446
0.00260539525447683
0.00256386743367143
0.00252163347631143
0.00247867422443525
0.0024349284724159
0.0023903004050868
0.00234462025092062
0.00229765879409422
0.00224905989605155
0.00219832869982563
0.00214475175176433
0.00208705931275762
0.00202275816116634
0.00194859954881481
0.00188366700667502
0.00187511737030118
0.0019415340033112
0.00207440058682521
0.00226726963090077
0.00251881193921194
0.00283194235956662
0.00320573170658186
0.0036318912456886
0.00409958274564531
0.00459935931582271
0.00512204281840596
0.00566488428180532
0.00624033086136591
0.00687074924742235
0.00758418143035516
0.00841177335929144
0.00938924654127143
0.0105323738464877
0.0118159871173962
0.0131826674419675
0.0145151436411787
0.0156835167427382
0.016629262645241
0.0174779480818854
0.0180420593811346
0.0186274558921805
0.0189262194355638
0.0166131889229962
0.0159574149246491
0.015751548295292
0.0194456507031578
0.0139715371157503
0.00271771589201358
0.000324902554593052
0.000151858895931913
0.000141385959288222
0.00013078626341438
0.000125385026793464
0.00013084929727642
0.000147838272695032
0.000175285245148318
0.000211357748695529
0.000251731256926574
0.000291893869210871
0.000329667850958114
0.00036567996264301
0.000401832955962827
0.000440626221515225
0.000484705183873295
0.000536772234215977
0.000599381188324138
0.000674339678996731
0.000762309016450192
0.000862793195742213
0.000973386466665409
0.0010888613655864
0.00120469352562863
0.00131830380461245
0.0014291479707363
0.00153686750972888
0.00164149047581399
0.00174302144702263
0.00184149509827885
0.00193689010786378
0.00202915482848857
0.00211819387430826
0.00220387506725946
0.00228602462490324
0.00236441508178332
0.00243873218998232
0.00250868728200795
0.00257408812847195
0.00263483045556616
0.00269088247331419
0.0027422644350328
0.00278898288004112
0.00283093917425402
0.00286810467402749
0.00290048092259916
0.00292809860264527
0.00295101891790832
0.00296933210661464
0.00298315536066273
0.00299263014779376
0.00299791906927491
0.0029992025076644
0.00299667519383883
0.00299054283275277
0.00298101886885457
0.00296832142073743
0.00295267049249096
0.00293428536530055
0.0029133821173522
0.00289017149534301
0.00286485705789496
0.00283763363183073
0.00280868597749846
0.00277818770416396
0.00274630020448914
0.00271317108232276
0.0026789330420847
0.00264370411883216
0.00260758767382091
0.00257067148953703
0.00253302773094251
0.0024947102766346
0.00245575506274332
0.0024161738655135
0.00237595816654198
0.00233506502603389
0.00229342283634461
0.002250900781954
0.0022073234899013
0.00216241483190297
0.00211579247551222
0.00206689246546277
0.00201469931545042
0.00195723679542218
0.00189236888954192
0.00183481535324273
0.001823705593389
0.00188014579788491
0.00199817210740083
0.00217200467045001
0.00239969959783177
0.00268267440668271
0.00301915219788677
0.00340173354458671
0.00382081754229277
0.00426810792252796
0.00473622534876277
0.00522439342273526
0.00574360420408047
0.00631226332655835
0.00695355832976901
0.00769356259313115
0.00856119345199957
0.00956762196994138
0.0106934063965912
0.0118910348638355
0.0130581698860235
0.0140724035686096
0.0148659267640518
0.0155570845585031
0.0160924197499488
0.0166372622541712
0.016843421643844
0.0149919796684458
0.0144755409559732
0.0141774376638059
0.0180399504448037
0.0156420418398009
0.00430524252140496
0.000473907915527295
0.000149853344530317
0.000134314827790947
0.000128228000768068
0.00012583620263323
0.000133133461502651
0.000150994203276358
0.000178044091694899
0.000211911156433146
0.000248673536825116
0.000284981225558661
0.00031972974577745
0.000353911960782285
0.000389446822675633
0.000428659337232598
0.000473899744044288
0.000527463753081581
0.000591439943531512
0.000667228375873282
0.000755336216596934
0.000855305321777148
0.000964302362126234
0.00107632530749656
0.00118756912310722
0.00129657533992879
0.00140286774412062
0.00150609348719853
0.00160628824215062
0.00170343350389603
0.00179755926717301
0.00188864023693562
0.00197662881672043
0.00206143675507822
0.00214294189372199
0.00222098249507414
0.00229534973585198
0.00236577930930527
0.00243205953039715
0.00249403993666313
0.00255163333151686
0.00260480184728457
0.00265353716584207
0.00269781324071392
0.00273755084938264
0.00277272448616864
0.00280333584766718
0.00282941447621051
0.00285101868999634
0.00286823444954379
0.00288117350565987
0.00288997093847936
0.00289478220659126
0.0028957799599856
0.00289315074438165
0.00288709174766251
0.00287780766391019
0.00286550771327426
0.00285040294262104
0.00283270369936739
0.00281261723020347
0.00279034562119462
0.00276608401347726
0.00274001912007055
0.00271232796615587
0.0026831768887293
0.00265272052134578
0.00262110029067643
0.00258844334150205
0.0025548628020666
0.00252045793873439
0.00248531346540982
0.00244949964848009
0.00241307016532354
0.00237606265403669
0.00233849427924512
0.00230036553492195
0.0022616469229469
0.0022222861366596
0.00218218393664301
0.00214120725013178
0.00209914433776373
0.00205569951782929
0.00201042918028906
0.00196251034584153
0.00191037084119415
0.00185260761261762
0.001800906245517
0.00178844997010968
0.0018371825667356
0.0019433936162459
0.00210199675788248
0.0023106672851927
0.00256971297101343
0.002876756048735
0.00322498556897007
0.00360577073538086
0.00401176780988982
0.00443705935358767
0.0048822178350691
0.00535726811722626
0.00587784927400878
0.00646362194612187
0.007137011443048
0.00792242038887142
0.00882865358819844
0.00983984972353007
0.0109142962570462
0.0119584022724557
0.0128517913913015
0.013519610982701
0.014068405196382
0.0145387210027297
0.0150428867213442
0.0152171750518314
0.0136936923793426
0.0132763788201111
0.0129315358839008
0.0164733122467043
0.0166920814394598
0.00622212425151353
0.000760105438893787
0.000161729625673985
0.000128297348564226
0.000125211871313567
0.000125285794468812
0.000133933496836499
0.000152266359785866
0.000178767893123776
0.00021086916584175
0.000245101333814928
0.00027892971805268
0.000311884076985173
0.000345148513940527
0.000380618908517169
0.000420475513222085
0.00046684703396927
0.000521721254859351
0.000586824749686743
0.000663277706741204
0.000751480070422189
0.000850891712857725
0.000958389529146996
0.00106775330728933
0.00117568962312911
0.00128133824650965
0.00138429334870661
0.00148421505399704
0.0015811373876687
0.00167502796118666
0.00176591479173021
0.00185377269795184
0.00193856017334637
0.00202019740887886
0.00209857302670109
0.00217353865808849
0.00224490670544423
0.00231246074511944
0.00237603482077943
0.00243550413082232
0.00249078886520966
0.00254184253869384
0.00258863584745795
0.00263112544918666
0.00266924415834981
0.00270296741733425
0.00273229611871509
0.00275725802801213
0.00277790854092145
0.00279432983480389
0.00280662920395045
0.00281493676140956
0.00281940262030293
0.00282019381143128
0.00281749106569907
0.00281148562441616
0.00280237614893242
0.00279036577756136
0.00277565946956026
0.00275846151751272
0.00273897318737711
0.00271739069548529
0.00269390346540454
0.0026686926784055
0.00264193006260597
0.00261377695178714
0.00258438330618408
0.00255388623674276
0.00252240898970436
0.00249006126725929
0.00245693950989333
0.00242312640174892
0.00238869107558972
0.00235368741898166
0.00231815519553593
0.00228211677057469
0.00224557898624002
0.00220852360594728
0.00217091425162055
0.00213267785386017
0.0020937156781736
0.00205386882913403
0.00201291047661808
0.0019704954019984
0.00192595073401017
0.00187802167803243
0.00182578008041387
0.00177877528429646
0.00176571084954445
0.00180839082296032
0.00190499116096849
0.00205112635473264
0.00224424547625667
0.00248381865476902
0.0027670251431933
0.00308746037114026
0.00343727738139678
0.00380996194578481
0.00420082890478449
0.00461141561482669
0.00505104051027581
0.00553332006020666
0.00607527480620723
0.00669663189593433
0.00741873766689362
0.00824925782876347
0.00917448137776451
0.0101555479866381
0.011103433869629
0.0118966935004762
0.0124566774362343
0.0128812384251135
0.0132740469991476
0.0137316451647616
0.0138973102717205
0.012621697356296
0.0122787018251274
0.0119379149803923
0.0149196552503234
0.0171752312173086
0.0082723151653567
0.00121930116370442
0.000198460934321363
0.000125587660883495
0.000122890377850722
0.00012485641350967
0.000134437798664181
0.000152966974442316
0.000178897257858843
0.000209615569555736
0.00024204598418095
0.000274223632350555
0.000306079086079321
0.000338910352685149
0.000374578363331436
0.000415140923993617
0.000462552334422118
0.000518559500834866
0.000584607012517269
0.000661612544238472
0.000749874920268585
0.000848722691062865
0.000954893370782255
0.00106225065030528
0.00116783903472856
0.00127108737507114
0.00137165354428672
0.00146920964241088
0.0015637800077457
0.001655322715131
0.0017438643328475
0.00182938166378449
0.00191183994871721
0.00199116814450603
0.00206726573005922
0.00213999824200793
0.00220919885468324
0.00227469043663513
0.00233633497089016
0.00239402289585202
0.00244767594192042
0.00249723828339657
0.00254266504049668
0.00258390295934955
0.0026208917699863
0.00265360632044935
0.00268204586904592
0.00270623589531205
0.00272622884498502
0.00274210351813184
0.00275396355858924
0.00276193527545268
0.00276616490886041
0.00276681560322521
0.00276406421947483
0.00275809816264333
0.00274911229332017
0.00273730598179409
0.00272288045718336
0.00270603632255585
0.00268697120537951
0.00266587774539301
0.00264294186734288
0.0026183413441387
0.0025922446148659
0.00256480988786902
0.00253618418248279
0.00250650184489117
0.00247588360519084
0.0024444369759522
0.00241225664425044
0.00237942415247557
0.00234600817573079
0.00231206353886176
0.00227763260076214
0.0022427414893379
0.00220740239597669
0.00217160680291239
0.00213533183972749
0.00209852650352904
0.00206112062785277
0.00202299931505534
0.0019839917333462
0.00194383392414127
0.00190197257799796
0.00185740222251801
0.00180949188126559
0.00176627802740001
0.00175305130977501
0.00179091699708153
0.00187956830151297
0.00201530408463606
0.00219545385068372
0.00241884754168845
0.00268232857077261
0.00297978604771906
0.00330402879404211
0.00364929547050069
0.00401196925979078
0.00439429759627463
0.00480503217927312
0.00525624694081679
0.00576293867884047
0.00634281276229379
0.00701515425251142
0.00778716332980171
0.00864614986148827
0.00955384702406883
0.0104229636329818
0.0111293952597131
0.0115940824188023
0.01191171606169
0.0122263707323001
0.0126329877419402
0.0127961647289722
0.0117152949541192
0.0114295819554611
0.0111301553348892
0.0134770764243216
0.0171680243011685
0.010255171763629
0.00193750985144183
0.000275436348651257
0.000128506885525989
0.000121792814414245
0.000125004293759966
0.00013519762292279
0.000153731726362615
0.000179101209019274
0.000208714104027843
0.000239817901830759
0.000270856797288525
0.000302027231664609
0.000334697387847708
0.000370687552356821
0.000411949081961
0.000460294902656963
0.000517281024883182