/*--------------------------------*- C++ -*----------------------------------*\
  =========                 |
  \\      /  F ield         | OpenFOAM: The Open Source CFD Toolbox
   \\    /   O peration     | Website:  https://openfoam.org
    \\  /    A nd           | Version:  7
     \\/     M anipulation  |
\*---------------------------------------------------------------------------*/
FoamFile
{
    version     2.0;
    format      ascii;
    class       volScalarField;
    location    "2000";
    object      nut;
}
// * * * * * * * * * * * * * * * * * * * * * * * * * * * * * * * * * * * * * //

dimensions      [0 2 -1 0 0 0 0];

internalField   nonuniform List<scalar> 
15600
(
1.27561466855326e-08
1.06338503854861e-08
5.34232419817623e-09
1.58419936327623e-09
1.70467602426372e-10
3.04001110296584e-11
2.41324176862443e-11
1.65887544193653e-11
1.56837225068041e-11
1.52586295563731e-11
1.65119569041321e-11
2.00296107896896e-11
2.67386942027609e-11
3.8337772273889e-11
5.91176004617647e-11
9.53652879239581e-11
1.55916397070089e-10
2.52433174528862e-10
4.01290141448761e-10
6.21785383648356e-10
9.32765118624292e-10
1.34851758879121e-09
1.8795444364309e-09
2.50475731416895e-09
3.1506817652909e-09
3.70936896372538e-09
4.13197072233705e-09
4.49217239224586e-09
5.86239822282903e-09
8.20343464067406e-09
1.0569289931743e-08
1.29475495891337e-08
1.53326180075554e-08
1.77192203394367e-08
2.01085094841898e-08
2.25036629059045e-08
2.49039045254693e-08
2.73075953276543e-08
2.97097662771652e-08
3.21038445650695e-08
3.4481322227186e-08
3.683271343361e-08
3.9148344634824e-08
4.14197183058095e-08
4.36420109028432e-08
4.58161305588644e-08
4.79439236897711e-08
5.00043044508032e-08
5.18961393080504e-08
5.36048625479732e-08
5.51534171414493e-08
5.65313089371808e-08
5.77317972294942e-08
5.87505560104095e-08
5.95857546474287e-08
6.0237958361766e-08
6.0709937560978e-08
6.10064368552565e-08
6.11339053199687e-08
6.11002144166598e-08
6.09143758599253e-08
6.05862651551983e-08
6.01263617306046e-08
5.95455218997199e-08
5.8854738784051e-08
5.80649640917387e-08
5.71869317171516e-08
5.62310202764103e-08
5.5207104960998e-08
5.41244399044562e-08
5.29915677630903e-08
5.18162186943226e-08
5.0605371329247e-08
4.93653626685009e-08
4.81018009684491e-08
4.68195124107932e-08
4.55226145096616e-08
4.42142061281671e-08
4.28966325407123e-08
4.15707766086994e-08
4.02367401099226e-08
3.88921135193386e-08
3.75338192133884e-08
3.6153841645345e-08
3.474412200102e-08
3.32862843191925e-08
3.17647328306259e-08
3.01415941367408e-08
2.83919621319824e-08
2.64453499912026e-08
2.42901428320766e-08
2.16568743120814e-08
1.98788816228496e-08
2.05301340369064e-08
2.12986258737145e-08
2.21151674759802e-08
2.24295840885485e-08
2.24232634168443e-08
2.21354094425338e-08
2.18583524068534e-08
2.15021735162135e-08
2.10765192901418e-08
2.05146227238393e-08
1.98353055462336e-08
1.87786346343664e-08
1.74038355957552e-08
1.59014369366239e-08
1.44041220405411e-08
1.30215550460763e-08
1.18823673158949e-08
1.13356697845912e-08
1.14192333859968e-08
1.23205598826367e-08
1.45007697608926e-08
1.86237663403088e-08
2.39480628888002e-08
2.21554559294855e-08
1.71450677741113e-08
1.31685218480736e-08
1.31752991808592e-08
2.33874371481436e-06
1.92369214334248e-06
9.52040785333739e-07
2.9687705668367e-07
3.541980397947e-08
6.36713468646296e-09
4.7531804084722e-09
3.25596856912043e-09
3.05162843610327e-09
2.96137680744234e-09
3.18541380813248e-09
3.83889143454853e-09
5.09573325870492e-09
7.26854160444584e-09
1.11545893976295e-08
1.79316442706982e-08
2.92736812585873e-08
4.73756787275912e-08
7.53508642106329e-08
1.16946659938393e-07
1.75908401758703e-07
2.54913383457955e-07
3.56104274809939e-07
4.76985401681079e-07
6.03149934647226e-07
7.12691442129032e-07
7.90005073298159e-07
8.30541921057914e-07
1.06615108792607e-06
1.48765393111652e-06
1.91290766229216e-06
2.33819561130599e-06
2.76267554223846e-06
3.18546869084035e-06
3.60700632075358e-06
4.02825862932665e-06
4.44946990016552e-06
4.87079697733563e-06
5.29179344907938e-06
5.7117451919166e-06
6.12958370796689e-06
6.54404903405468e-06
6.95381060213391e-06
7.35767895749987e-06
7.75503141460333e-06
8.14617359874428e-06
8.53110746556692e-06
8.90386263983795e-06
9.25063435103229e-06
9.57007108283259e-06
9.86360422317922e-06
1.01291330237394e-05
1.03652070696871e-05
1.05707477202134e-05
1.07450737535686e-05
1.08878979311885e-05
1.09993066306677e-05
1.10797325013402e-05
1.11299191703029e-05
1.11508823414734e-05
1.11438693157991e-05
1.11103174514819e-05
1.10518132920819e-05
1.09700564715132e-05
1.08668179900298e-05
1.07439090648591e-05
1.06031477048608e-05
1.04463318205672e-05
1.02752088306832e-05
1.00914481667895e-05
9.89662325790529e-06
9.69218256390619e-06
9.47946120323936e-06
9.25969709430095e-06
9.03400799434354e-06
8.80337846361704e-06
8.56867212271393e-06
8.33056182256387e-06
8.08959119276912e-06
7.84601356815498e-06
7.59995637933314e-06
7.35103118745778e-06
7.09877154767832e-06
6.84168048223203e-06
6.57836334300471e-06
6.30526205081444e-06
6.01957817187529e-06
5.71388295419119e-06
5.38362815259422e-06
5.01501280211753e-06
4.60505628830148e-06
4.10672521467689e-06
3.77126430759673e-06
3.91134264291711e-06
4.06443963266352e-06
4.23533487589917e-06
4.30583225776796e-06
4.31813492697198e-06
4.27634264866483e-06
4.23746442130735e-06
4.17528580123394e-06
4.09541519354659e-06
3.98308565125161e-06
3.842240385228e-06
3.62049227407437e-06
3.34391122087544e-06
3.0489896457936e-06
2.75852591235777e-06
2.49476955444851e-06
2.28405681266129e-06
2.19113533012992e-06
2.20726079092791e-06
2.37597626069332e-06
2.77688158223945e-06
3.48229187315066e-06
4.22362799240576e-06
3.62425497696752e-06
2.7629582344359e-06
2.19304582962717e-06
2.32680416082638e-06
3.44567503223356e-05
3.09297456066115e-05
1.94183336590737e-05
6.96469055026347e-06
8.8700086086445e-07
1.54763289307258e-07
1.08219593549042e-07
7.38790849066496e-08
6.87649307215542e-08
6.66139469348855e-08
7.12539923424097e-08
8.52540617695388e-08
1.12589825551911e-07
1.60337168240486e-07
2.45834749816203e-07
3.95115705467324e-07
6.44498744097466e-07
1.04130719628845e-06
1.65011124322673e-06
2.54357237903525e-06
3.78573856815286e-06
5.41677347826771e-06
7.44116383781746e-06
9.75491095885003e-06
1.21340149837948e-05
1.40277819139553e-05
1.52734421093507e-05
1.72343629793505e-05
2.23218975468783e-05
2.9436852350827e-05
3.60826294263389e-05
4.23751758670503e-05
4.84042676662501e-05
5.42060384367362e-05
5.98313086328146e-05
6.53120037382335e-05
7.06697022678289e-05
7.59169431059432e-05
8.10586066059741e-05
8.60942576156587e-05
9.1019321934507e-05
9.58268080643158e-05
0.00010050897502183
0.00010505904399079
0.00010947317945218
0.000113757413739104
0.000117988320761671
0.000122265676437982
0.000126249423123308
0.00012995175471655
0.000133372855331015
0.000136496469396177
0.000139311490499222
0.000141809701071062
0.000143986007880009
0.000145838410735386
0.00014736784252136
0.0001485779642028
0.000149474905156634
0.000150066980658106
0.000150364404035714
0.000150378988095253
0.000150123857454568
0.000149613192166385
0.000148861916344858
0.000147885466879206
0.000146699536166456
0.00014531985622026
0.000143761940686209
0.000142040832180992
0.000140170927293698
0.000138165674970395
0.00013603765993412
0.00013379873365224
0.000131459764614552
0.000129030474795509
0.000126519483484292
0.000123933569091935
0.000121278131913873
0.000118555515340063
0.00011576638089209
0.000112905643079957
0.000109966409308338
0.000106929857810671
0.000103776101257445
0.000100459213477052
9.69373643261851e-05
9.31098635473443e-05
8.89012898168686e-05
8.4112280784419e-05
7.87634454406993e-05
7.22800118848297e-05
6.76192630097464e-05
6.89176615213809e-05
7.11275133308789e-05
7.35016067536889e-05
7.4520282140663e-05
7.47024477935855e-05
7.41457989728308e-05
7.35666737530781e-05
7.26338921063551e-05
7.13855120978798e-05
6.96246233864556e-05
6.7371138217408e-05
6.39121589154724e-05
5.95767637437149e-05
5.48734412526544e-05
5.01446121701871e-05
4.57381189585766e-05
4.21119222959243e-05
4.02775197638587e-05
4.00693084599838e-05
4.20368681921412e-05
4.70011707496514e-05
5.53743227603883e-05
6.29849599441699e-05
5.76782172025699e-05
4.67383824889659e-05
3.73110209338854e-05
3.4880813482805e-05
0.000122717783646887
0.000117095970261429
8.32133083979357e-05
3.90413532901085e-05
7.63890612056028e-06
1.41307940692095e-06
9.06753880785985e-07
6.17115841999202e-07
5.71409041408857e-07
5.52732463113663e-07
5.87452457683705e-07
6.96397278988125e-07
9.11331071864182e-07
1.28347626294461e-06
1.94088975942055e-06
3.07052785181327e-06
4.92471404635328e-06
7.80637943280195e-06
1.20923562558308e-05
1.81288109560596e-05
2.6067771189027e-05
3.57587797706245e-05
4.68022979083024e-05
5.82330861671778e-05
6.83945533019746e-05
7.5357957508121e-05
7.99622007503747e-05
8.82082944052897e-05
0.000109500351080419
0.000137088974229004
0.000161821311763501
0.000184595506120835
0.000205863921345274
0.000225891996574561
0.000244950315445294
0.000263217209507595
0.000280819001543179
0.000297838336189352
0.000314323822246439
0.000330300145210462
0.000345774158042156
0.00036074145363447
0.000375192530578836
0.000389121493146283
0.000402557746852538
0.00041572810379401
0.000428606513077906
0.000441088096821856
0.000452683241903499
0.000463429533212091
0.000473315101475939
0.000482311751891
0.000490402667927179
0.000497578155302654
0.000503836004575215
0.000509181222326363
0.000513625481314579
0.000517186489391755
0.000519887263982608
0.000521755384329273
0.000522822267312336
0.000523122440273185
0.000522692874724329
0.000521572405393481
0.000519801033860075
0.000517419419522768
0.000514468328969693
0.000510988173473962
0.000507018451544828
0.00050259719041651
0.000497760547226616
0.000492542110769652
0.000486973062464094
0.000481082541350446
0.000474897087465505
0.000468440233584524
0.000461732544301555
0.000454789836761373
0.000447624003141819
0.000440239006311399
0.000432633490559516
0.000424791094653904
0.00041668842526593
0.000408270625758651
0.000399474727147749
0.000390167826102753
0.000380216370430955
0.000369323812547847
0.000357237300960057
0.000343318208811951
0.000327643203669567
0.000308106329866084
0.000293494478452053
0.000296974900589785
0.00030411447642937
0.000311538396971758
0.000315129104251103
0.000316111062613764
0.00031493583956097
0.000313550719001858
0.00031097745264189
0.000307163632827274
0.000301513075000136
0.000293952803951558
0.00028224248705807
0.000267299336830102
0.000250735047447033
0.000233667723518999
0.000217278851274517
0.00020339980759893
0.000195941337198745
0.00019445178983863
0.000200753241013786
0.000217395400763277
0.000245157795691554
0.000269524921564991
0.000243820137416378
0.00019031855989668
0.000139791744097568
0.000122935233346729
0.000259052820821828
0.000250634282277096
0.000182630403137335
9.29204561223911e-05
3.12438610431401e-05
7.66383437444417e-06
4.45236954038354e-06
3.00843741492299e-06
2.77238680047249e-06
2.6754797131771e-06
2.81697180742862e-06
3.29280220311244e-06
4.23744366604959e-06
5.83505162604865e-06
8.57466039294902e-06
1.31197943594391e-05
2.02844190772464e-05
3.08493578255661e-05
4.55754354663592e-05
6.47657579198957e-05
8.7835317018987e-05
0.000113376869382233
0.000139788483417782
0.000164400675851338
0.000183568698187635
0.000195379362366543
0.000204520755464592
0.000224265359774025
0.000273816087451657
0.00033524100152948
0.0003884996882616
0.000436395090526571
0.000480161722334696
0.000520639874813938
0.000558566954509363
0.000594436901839036
0.000628600461467725
0.000661295822293001
0.000692677466453483
0.000722841538104444
0.000751841898429677
0.00077970587062167
0.000806452728741364
0.000832135304104478
0.000857000034884889
0.000881076961005563
0.000904215300778487
0.000926188679402832
0.000946545878382462
0.000965337834159654
0.000982541755510571
0.000998128382032441
0.00101208417161053
0.00102440673235742
0.00103510523289227
0.00104419988299219
0.00105172097970126
0.00105770782401928
0.00106220750807644
0.0010652736828012
0.00106696538563788
0.00106734587594374
0.00106648159318963
0.00106444125349655
0.0010612947787904
0.00105711250361271
0.0010519643472082
0.00104591910779361
0.00103904361814158
0.00103140189987182
0.00102305449809377
0.00101405743750291
0.00100446233203015
0.00099431702883978
0.000983664837770016
0.000972543846463117
0.000960986899885454
0.000949018883131667
0.000936657516683578
0.000923907396263674
0.000910762858935732
0.000897193631070111
0.000883154551283866
0.000868549029566548
0.000853259830127629
0.000837055283374896
0.00081968657931494
0.000800637203649999
0.000779429722064819
0.00075491784913011
0.000727052864404078
0.000691692859686146
0.000664802095970221
0.000670847164476094
0.000684875729677093
0.000699340796782485
0.000707623442007148
0.000711265763358986
0.00071130528292855
0.00071082993263548
0.000708052551418175
0.000702576206910047
0.000693365216118578
0.000680093809991519
0.000658751425192185
0.000630904846368734
0.000599619627001026
0.000567029747007405
0.000535357503301973
0.000508491787220684
0.000494556913595317
0.000493050812415811
0.000507284814372179
0.000541945059233187
0.000598226754805755
0.000648013616078671
0.000592853433237024
0.000467159525887977
0.000328737583380109
0.000269203962689626
0.00045355009685861
0.000433684437227774
0.000318432655427893
0.000161923471396379
7.28164299398587e-05
2.80684888424181e-05
1.57201208983828e-05
1.04450566070033e-05
9.5667318483054e-06
9.18501090547848e-06
9.52598924482881e-06
1.08924617009049e-05
1.36333403229572e-05
1.81284894909162e-05
2.55581419203476e-05
3.73710767272435e-05
5.5097026655888e-05
7.97141435865097e-05
0.000111767320880037
0.00015053382945115
0.00019366416041156
0.000237993132467744
0.000280784662766673
0.000317973755770539
0.000345194179600474
0.000362856363147762
0.000381069822855457
0.000420508562253212
0.000507553983757811
0.000609460784988814
0.000695684948026167
0.000772215584052645
0.000841397354223215
0.000904828414629962
0.000963826602790468
0.0010192669963965
0.0010717731143627
0.00112177166223494
0.00116954832152406
0.00121528975612214
0.00125911287609371
0.00130109360240046
0.00134130895884214
0.0013799270098071
0.00141712065036207
0.00145277431047685
0.00148669045349956
0.00151858548329791
0.00154809651187678
0.00157527035218602
0.00160007593643437
0.00162248660254496
0.00164249474857353
0.00166010803112073
0.00167534971494077
0.00168825790409543
0.00169888418084476
0.00170729205273933
0.00171355523732105
0.00171775592869639
0.00171998316330301
0.00172033120708611
0.00171889812964396
0.00171578457071052
0.00171109229895236
0.00170492311719834
0.00169737776020643
0.00168855493965023
0.00167855022099212
0.00166745490608386
0.00165535506493611
0.00164233020189994
0.00162845316377095
0.00161379104248605
0.00159840430414145
0.00158234580484636
0.00156566065029828
0.00154838269104527
0.00153053492418661
0.00151212202646628
0.00149313256838471
0.00147352116579436
0.00145321772860115
0.00143208183241747
0.00140993519860223
0.00138644447205448
0.0013612315421155
0.00133355597087229
0.00130268847902512
0.00126696870536702
0.00122594873056929
0.00117323735639866
0.00113268410659539
0.00114124222703824
0.00116372906720395
0.00118714949595828
0.00120251874613992
0.00121123303021739
0.001215023972978
0.00121788067038115
0.00121714911916178
0.00121183291251778
0.00120047403350109
0.00118238065156324
0.00115187237333061
0.00111113923848856
0.00106491656833217
0.00101655692928358
0.000969415939616919
0.000929779287781414
0.000910359168286733
0.000910948341478129
0.000936016864682076
0.00099197914984103
0.00108044855086382
0.00115935124924994
0.00107485147855542
0.00086819819632458
0.000620994780156198
0.000491795978006701
0.000713917927312945
0.00067135262851961
0.000501510183817962
0.000254054491671027
0.000120686221843387
6.94028069030173e-05
4.34748938309221e-05
2.83557268241733e-05
2.57299408280993e-05
2.44854017058238e-05
2.48548671081127e-05
2.75841865436098e-05
3.32902921836567e-05
4.25109956217372e-05
5.7414595592446e-05
8.04061193947956e-05
0.000113524533336157
0.000157178750664975
0.000210781783163386
0.000271802193717976
0.000335921410258063
0.000398651946411681
0.000456739118370109
0.000505636362007075
0.000541780220650952
0.000569027926068838
0.000602631070909379
0.000669026171685247
0.000797579280270853
0.000940992398298847
0.00106118948721789
0.0011674998353147
0.00126329463944182
0.00135087553799087
0.0014321132429992
0.00150824686168301
0.00158016810173344
0.00164849052810177
0.00171363279895261
0.00177587488863957
0.00183540165855319
0.00189234534348151
0.00194684083716828
0.00199910992520708
0.00204915726539502
0.00209682818523316
0.00214189387306107
0.00218406065507439
0.00222304882709807
0.00225889233397995
0.00229155554759127
0.00232101623376103
0.00234727426923977
0.00237034896221997
0.00239027925625729
0.00240712270486496
0.00242095369615404
0.0024318614161297
0.00243994762089117
0.00244532439244738
0.00244811203582211
0.0024484370152378
0.00244643014033837
0.00244222500201462
0.00243595617086451
0.00242775779176169
0.00241776221244271
0.00240609877932561
0.00239289245039591
0.00237826242062324
0.00236232084326573
0.00234517123947837
0.00232690809526986
0.00230761796271779
0.00228737858519025
0.00226625761974185
0.00224431231274991
0.00222158533993155
0.00219810453930708
0.0021738742778278
0.00214887635710148
0.00212304957929198
0.00209629679804856
0.0020684327859236
0.00203921383169369
0.00200820359883165
0.00197488557470676
0.00193829740475919
0.00189743832729185
0.00185014600874478
0.00179538047624524
0.00172450610333494
0.00166926869026859
0.00167957463020096
0.0017115977199878
0.0017456829971556
0.0017703719865393
0.00178650105244184
0.00179647887642049
0.00180495821442096
0.00180841255933453
0.00180504364803038
0.00179298273208817
0.00177109851655226
0.00173223513772923
0.00167913032149669
0.00161828293718068
0.00155442632025559
0.00149212785806231
0.00144022982308384
0.00141597443858342
0.00141978484437987
0.00145692272916269
0.00153503986299103
0.00165634191476979
0.00176545836993841
0.0016556240458519
0.00136648671369746
0.00100814465999728
0.000795822233185243
0.00103919949546467
0.000964081709498206
0.000740364419118348
0.000371436398095102
0.000170999580280503
0.00012132581106937
9.52312128308061e-05
6.31991349777859e-05
5.66413386054364e-05
5.33147926093283e-05
5.28143575322157e-05
5.67366320693091e-05
6.60175519628606e-05
8.13427979119944e-05
0.000106098284347051
0.000143553104408994
0.00019558049009209
0.000261060800693057
0.000337668200886798
0.000420994647700952
0.000505208568585214
0.000585176503263176
0.000657729270396194
0.000718698551693739
0.000766249104208055
0.000807701941662605
0.000862358857425646
0.00096047257043569
0.0011314055938868
0.00131553074491886
0.00146978443332789
0.00160634884631243
0.00172943370523641
0.00184193846055413
0.0019462239890075
0.00204385892220407
0.00213598522456521
0.00222339340167332
0.00230663081050602
0.00238606931634433
0.00246196235325124
0.00253449918521122
0.00260386717650792
0.00267022628806843
0.00273350391602941
0.0027935184616331
0.00285002715840991
0.0029027527756073
0.00295148195199838
0.00299623423007765
0.00303697344299183
0.00307368358664759
0.00310637371932703
0.00313507639669337
0.00315984769166742
0.00318076591143495
0.00319792941169905
0.00321145407709873
0.00322147058618646
0.00322812166239422
0.00323155951031597
0.00323194331201007
0.00322943703337641
0.00322420754012215
0.00321642245582744
0.00320624844911165
0.00319384960489897
0.00317938598006077
0.00316301197405617
0.00314487471383268
0.00312511248053426
0.00310385287745652
0.00308121205239539
0.00305729591930421
0.00303219935057675
0.00300600463985154
0.00297878093119363
0.00295057951538476
0.00292143270601578
0.00289134428763855
0.00286028867735633
0.00282818861099356
0.00279491871424874
0.00276024896714958
0.00272386716629673
0.00268523544198108
0.00264369417417319
0.00259806516780125
0.00254706440190606
0.00248804993809651
0.00241927607752157
0.00233002894764954
0.00225945892350844
0.00227031658218497
0.0023124127904318
0.00235854234140583
0.00239448668670641
0.00242014657138768
0.00243848897081007
0.00245460126528191
0.00246410227106471
0.00246425194386485
0.00245277358316674
0.00242805305059746
0.00238167918925845
0.00231684204473918
0.00224179112871586
0.00216273526960347
0.00208551258954975
0.00202156191831207
0.00199239266627708
0.00199936256331517
0.00204831915128202
0.00214790441076365
0.00230135583509085
0.00244096896170763
0.00231124422976049
0.00194171486943402
0.00147397851315967
0.00117401193844455
0.00142414876319929
0.00130908602556738
0.00103727651882002
0.000517283407578614
0.000230377724709267
0.000156251474715936
0.000163376430485401
0.000119217329209204
0.00010586634970375
9.86801695515978e-05
9.56445006473816e-05
9.98246487921731e-05
0.000112712351579987
0.000135177897063679
0.000171763067149966
0.000226085480553979
0.000298955241797155
0.000387127890785493
0.000486501477370636
0.000591143353549493
0.000694263494344432
0.000790631062042629
0.000877623301886024
0.00095204167716098
0.00101410340175376
0.00107407334567278
0.00115412843401052
0.00128678149281565
0.00149971304472326
0.00172340010761416
0.0019115432170863
0.00207857616217743
0.00222937846391994
0.0023673454996278
0.0024952614630142
0.0026149893040144
0.00272790076303081
0.00283495204978741
0.00293681354052632
0.0030339463854913
0.00312667056039872
0.00321522256752831
0.00329982660306783
0.00338054982419223
0.00345728997595133
0.00352985071218176
0.00359799074014554
0.00366146239822508
0.00372010307381728
0.00377392058505239
0.00382288224234
0.00386698040847049
0.00390623532514368
0.00394069451484173
0.00397043261509597
0.003995549845997
0.0040161694315457
0.00403243461458053
0.00404450543603016
0.00405255550304601
0.00405676898695235
0.00405733770440641
0.00405445856453047
0.00404833138678613
0.00403915644808616
0.0040271324775278
0.00401245478941417
0.00399531361603581
0.00397589226329334
0.00395436527535277
0.00393089659753424
0.00390563750701709
0.00387872543468905
0.00385028522970823
0.00382042846441837
0.00378925169035346
0.00375683556667136
0.00372323970248638
0.00368850056305188
0.0036526211814926
0.00361556833013103
0.00357724890337871
0.00353750896804327
0.00349607385176571
0.00345256268053031
0.00340633926293982
0.00335660033855975
0.00330196144771833
0.00324085151268318
0.00317017825967587
0.00308743330662
0.00298009095100229
0.00289392513334042
0.00290398259666478
0.00295619264223591
0.00301537296500527
0.00306417690240608
0.0031012167168804
0.00312982083428626
0.00315528481754584
0.00317239888683106
0.00317739906982619
0.00316760014485708
0.00314088577655873
0.00308781372835495
0.0030119279303424
0.00292313439629969
0.00282914107941968
0.00273708198299474
0.00266092737145767
0.00262606352414014
0.00263506967944977
0.00269439663435076
0.00281378741028268
0.00299827840446936
0.00316881311449446
0.00302451603753963
0.00257956969546872
0.00200569265671888
0.0016167721437586
0.00186289453598817
0.00170274730408018
0.00138871328081367
0.000704698482527938
0.000303166833517346
0.000189587884543135
0.000225610613324704
0.000193950798827521
0.00017372029686507
0.000160987024362733
0.000153609215223631
0.000156828148922014
0.000173160761517941
0.000203639685303251
0.000253543777602051
0.000326116678793814
0.000420430237496558
0.000531016209497005
0.000652243624252562
0.000777057007583224
0.000898163615823286
0.00101063629089008
0.00111271911604877
0.00120249703237517
0.00128217587866935
0.00136429586140378
0.0014729240326286
0.00164172275898591
0.0018957916314453
0.00215785751835718
0.00237960252072404
0.0025771484744084
0.00275590748988506
0.0029196805639754
0.00307161168120257
0.00321382565998256
0.00334790397636336
0.00347495782132885
0.00359577481124929
0.00371090232455422
0.0038207245503023
0.00392552094226822
0.00402551066204441
0.00412070574501596
0.00421098905933063
0.00429616171420537
0.00437599629229457
0.00445028053343004
0.00451889130995503
0.00458182964854506
0.00463907034244553
0.00469061664674617
0.00473650225182436
0.00477679147386172
0.00481157892592885
0.00484098775400817
0.00486516669637842
0.00488428666605906
0.00489853708115513
0.004908122187302
0.0049132576533744
0.0049141672746885
0.00491108009326676
0.00490422794942818
0.00489384275585405
0.0048801542252055
0.00486338779091137
0.00484376274182581
0.00482149019447903
0.00479677106173154
0.00476979399112254
0.00474073305861126
0.00470974619122016
0.0046769764110412
0.0046425512776584
0.0046065809992262
0.00456915721918258
0.00453034747224522
0.0044901920705095
0.00444869321729954
0.00440581021651352
0.00436143469903132
0.00431538376782446
0.00426733993753191
0.00421685531008876
0.00416320023098189
0.00410543108223731
0.00404196972649777
0.00397096178928054
0.00388889885159492
0.00379249554174545
0.00366773429540038
0.00356608264423661
0.0035740062140455
0.00363595188065626
0.00370880790780606
0.00377173352648209
0.00382171714374222
0.00386219404663063
0.00389844087009543
0.00392444548291272
0.00393538691083137
0.00392817181046492
0.00390018154407857
0.00384116027094903
0.0037549115003473
0.00365284443339098
0.00354412281252359
0.00343715458467039
0.00334827239736477
0.00330626576029801
0.00331524918116413
0.00338256248948601
0.00351957397949995
0.00373423031386409
0.00393682974719203
0.00378289748438831
0.00326906427995928
0.00259384665639553
0.00211606297090881
0.00235021650725187
0.00214170497432353
0.00178792133476279
0.000944910493453706
0.000394361640527908
0.000231786810361082
0.000268725382658005
0.000274542247847128
0.000257403113801562
0.00023869476857904
0.000225749093008108
0.000227006080625358
0.000246654038873928
0.000285831600424057
0.000349967744141692
0.000441295259573213
0.000556826090130207
0.000689045367007337
0.000831080124278788
0.000975095673410414
0.00111365102199234
0.00124240746621038
0.00136066810608816
0.00146789583286045
0.00156802423211044
0.00167523332208891
0.00181471877749982
0.00202050143748715
0.00231462926821519
0.0026139008455231
0.00286885345166558
0.0030968017092972
0.00330357928632952
0.00349331383056293
0.00366945070005831
0.00383434721616549
0.0039897757947892
0.0041369928172691
0.00427689770022335
0.00441012091531971
0.00453710748281667
0.00465817266886625
0.00477351499186516
0.0048831222027057
0.00498687408168616
0.00508458076372607
0.00517603834361216
0.00526107239954836
0.00533959248439022
0.00541159891053462
0.00547707801956251
0.00553604684272829
0.005588554989964
0.0056346854678324
0.00567455422459075
0.00570830818297128
0.00573612198120135
0.00575819417038573
0.00577474314684989
0.00578600307993287
0.00579222015393081
0.00579364894169594
0.00579054924103297
0.00578318340095209
0.0057718133679989
0.00575669818085972
0.00573809171128193
0.00571624063189572
0.00569138224057921
0.00566374226098273
0.00563353260007926
0.00560094880511505
0.00556616810692881
0.00552935060271483
0.00549063884613206
0.00545015587656599
0.00540800363884492
0.0053642570995929
0.00531896011338966
0.00527211426263047
0.00522367182555431
0.00517350900424648
0.00512141520757946
0.00506703272245087
0.00500984990082375
0.00494904999474695
0.00488355570576408
0.00481161039668329
0.00473108702711472
0.00463809890952083
0.00452860302636542
0.00438742981735527
0.00427075037499908
0.00427533195037644
0.00434630077696709
0.00443308373255934
0.00451104636869916
0.00457523825457549
0.00462890701362071
0.0046770819777721
0.0047129707849291
0.00473070192123147
0.00472677755689873
0.00469809143304345
0.00463377825631164
0.00453781355184795
0.00442291412695679
0.00429959416504716
0.00417745380165269
0.00407491311810809
0.00402365166212431
0.00402972797732672
0.00410197438197805
0.0042543513158416
0.00449913142764517
0.00473603837263755
0.00457679061476571
0.00400120579034792
0.00323089647295205
0.00266551944074278
0.00288165914983827
0.00262301771256589
0.0022277725036672
0.00124721753882567
0.000510774709886238
0.000283789270387384
0.000307365081127872
0.000341414266245619
0.000351005169238661
0.000329308970328202
0.00031061244296567
0.000309368675291902
0.00033226333417711
0.000380570365954143
0.000459322513310448
0.000569307439766761
0.000705411055163855
0.000858332944494096
0.00102021139098815
0.00118271602427705
0.00133853053647525
0.00148409397015331
0.00161985054026092
0.00174658750559873
0.00186963214399543
0.00200426196013431
0.00217622021517991
0.00241930190416835
0.00275228135865659
0.00308757581322683
0.00337522224775563
0.0036333028572808
0.00386798135219391
0.00408364277036308
0.00428398063149823
0.00447155806181909
0.0046483210066968
0.0048156622077486
0.00497458796019337
0.00512580888926797
0.00526982721383825
0.00540698961237071
0.00553747469571439
0.00566126836129531
0.00577825900086412
0.00588827640348588
0.00599114776356312
0.0060867378035937
0.00617498572224612
0.00625589772758968
0.00632947589006006
0.00639575419704468
0.00645480079340517
0.00650671929956008
0.00655164827677082
0.00658975909516122
0.00662125241168702
0.0066463540429666
0.00666531056325188
0.00667838490112158
0.00668585228721307
0.00668799635641508
0.00668510575260721
0.00667747127875008
0.00666538276715549
0.00664912638223549
0.00662898221946374
0.00660522214340647
0.00657810750317273
0.00654788679549075
0.00651479328736379
0.00647904223820926
0.00644082859645535
0.00640032810786295
0.00635769705447264
0.00631307026115729
0.00626655913864705
0.00621824548815945
0.00616817663349991
0.0061163538873254
0.0060627220236925
0.00600714274213058
0.00594937973510895
0.0058890383446585
0.00582554786863207
0.00575801220396851
0.00568523000081629
0.00560528352774249
0.00551578976937932
0.00541252452869828
0.00529073329484991
0.00513443066193343
0.00500349820886527
0.00500372129921834
0.00508274952877538
0.00518335528885346
0.00527692213532392
0.00535627460160397
0.00542415438056518
0.00548511511908195
0.00553160004391389
0.00555672372867887
0.00555659125321183
0.00552763390927102
0.00545856377446079
0.00535344826494712
0.00522608633466046
0.0050881784814239
0.00495036240626719
0.00483276469386481
0.00476945764486293
0.00476903662239755
0.0048427991104485
0.00500871008635827
0.00528497916527747
0.00555976659767189