/*--------------------------------*- C++ -*----------------------------------*\
  =========                 |
  \\      /  F ield         | OpenFOAM: The Open Source CFD Toolbox
   \\    /   O peration     | Website:  https://openfoam.org
    \\  /    A nd           | Version:  7
     \\/     M anipulation  |
\*---------------------------------------------------------------------------*/
FoamFile
{
    version     2.0;
    format      ascii;
    class       volScalarField;
    location    "2000";
    object      p;
}
// * * * * * * * * * * * * * * * * * * * * * * * * * * * * * * * * * * * * * //

dimensions      [0 2 -2 0 0 0 0];

internalField   nonuniform List<scalar> 
15600
(
0.929755898840398
0.940955759183443
0.9421990072909
0.971620009755209
0.988855622448106
0.996745073877051
1.00008361128944
1.00286566332185
1.00446657230532
1.00573678032833
1.00649406346256
1.00705405214196
1.00745329248928
1.00772837549923
1.00793247565886
1.00810172322688
1.00833269895067
1.00864638144105
1.00908135621081
1.0096393398275
1.01028826733304
1.01090688638971
1.01145169831008
1.01190004944795
1.01216917328057
1.01219621996873
1.01200804897812
1.01081716627226
1.0097697297368
1.00937516491054
1.00932273849144
1.00972452567521
1.01050337682721
1.01164770959591
1.01312229273199
1.01491081953458
1.01699593624259
1.01936704359441
1.02201460765122
1.02493118586581
1.02810950607474
1.03154215814735
1.03522085336892
1.03913600482148
1.04327650375193
1.04762953313429
1.05218032947825
1.05691204630687
1.06180671118516
1.06684538880559
1.07200786472185
1.07727318765721
1.08261997590554
1.08802672831983
1.09347213262279
1.09893536641622
1.10439636237301
1.10983604067532
1.11523650411625
1.12058118788219
1.12585497649029
1.13104427519181
1.13613705229265
1.14112284924408
1.14599276094304
1.15073939533157
1.15535681019972
1.15984044011446
1.16418700320828
1.16839440410345
1.17246164254342
1.17638869985842
1.18017645968761
1.1838266256267
1.18734162136936
1.19072448941514
1.19397884121654
1.19710869521177
1.20011852635963
1.20301299476269
1.20579719824357
1.208476128783
1.21105539669167
1.21354004423094
1.21593630424211
1.21824908441458
1.22048567209124
1.2226511812762
1.22475443736333
1.22680340203909
1.22880577242172
1.23078799889139
1.23271618422267
1.23480508387107
1.23683300416376
1.23899628459746
1.24115311227814
1.24336164883134
1.24551134219569
1.24756050314428
1.24925570137904
1.25043010015129
1.25078977381684
1.25015744108086
1.24825469384324
1.24528303968171
1.2411363117078
1.23546685599115
1.227873237959
1.2173627280403
1.20234208476532
1.17860718324045
1.14388246477314
1.0953183127395
1.02658000533118
0.941420635556508
0.850258542125646
0.838701667535976
0.862507301933576
0.910250531654388
0.929764510675341
0.940996481497291
0.942211703797028
0.971327402743012
0.988580237101881
0.996576660334885
0.999981458125611
1.00279287177338
1.00442448131615
1.00571405751547
1.0064896518768
1.00706017443478
1.00746818124481
1.00775007467936
1.00795883464894
1.00812917066779
1.00835744145432
1.00866611113028
1.00909439894442
1.00964613410584
1.01029265205554
1.01091308791565
1.01146071016842
1.01191230262843
1.01218393775934
1.01221164471291
1.01202326390676
1.01082228655838
1.00977622759553
1.009385347638
1.00933447484983
1.00973831888111
1.01051896504179
1.011664942982
1.01314089843329
1.01493056326657
1.01701657141294
1.01938833986904
1.02203633557423
1.02495312083959
1.02813142449055
1.03156383812954
1.03524207586531
1.03915655532492
1.0432961749687
1.04764812556923
1.05219764652595
1.05692790196333
1.06182094708119
1.06685787650079
1.07201849454544
1.07728187079695
1.08262664796206
1.08803134946088
1.09347468710985
1.09893586161008
1.10439482728146
1.10983252414665
1.11523107274077
1.1205739237122
1.12584597462442
1.13103364136507
1.13612490042731
1.14110929914537
1.1459779360857
1.15072342085313
1.15533981105374
1.15982253944761
1.16416832106266
1.16837505616175
1.17244173939666
1.17636834621763
1.18015575372878
1.18380565843453
1.18732047666349
1.19070324333389
1.19395756245736
1.19708744501493
1.20009735919782
1.20299195830618
1.205776334878
1.20845547532006
1.21103498720426
1.21351990927771
1.21591647541902
1.21822959370388
1.22046655529476
1.22263248453174
1.22473620071611
1.22678571063626
1.2287887316727
1.23077152518357
1.23270289667567
1.23480284864281
1.23684325576798
1.23901931144756
1.24118754847989
1.24340506492375
1.24555852809846
1.24760120902844
1.24927598894244
1.25041536819868
1.25072685960807
1.25003591147377
1.24807582053206
1.24505009111696
1.24083787752946
1.23508462187891
1.22737315226618
1.21668404094857
1.2013657700311
1.17724134140178
1.1421154257749
1.09315843579181
1.02436641116719
0.939942869909404
0.850634124633849
0.839539009754176
0.862817378844556
0.910292885880612
0.929799303999647
0.941135505564287
0.942408117723111
0.971158792932087
0.988348995288892
0.996432794496487
0.999889421687797
1.0027255217851
1.00438445056885
1.00569203928789
1.00648480011489
1.00706549424019
1.00748191153891
1.00777035056449
1.00798365161491
1.00815510557204
1.00838063743299
1.00868384450437
1.00910438788735
1.00964783403773
1.01028873808283
1.01090744282987
1.0114547524726
1.01190706697512
1.01218015289649
1.01221014624306
1.01202475653978
1.01081770049643
1.00978142981405
1.00939502417226
1.00934557797172
1.00975165819802
1.01053396989033
1.01168134333762
1.01315823034934
1.01494847556171
1.01703470550896
1.01940638265953
1.02205398500779
1.02497009329067
1.02814744733526
1.03157865038042
1.03525542956832
1.03916821465439
1.04330591847683
1.04765573709015
1.05220293955526
1.05693078168714
1.06182134781799
1.06685570267512
1.07201369020524
1.07727441903585
1.08261656320734
1.08801867692099
1.09345950057792
1.09891826083333
1.10437493490037
1.10981048237607
1.11520703990136
1.12054807072174
1.1258184815298
1.13100469408548
1.13609468757962
1.1410780092485
1.14594575498555
1.15069052956164
1.15530638383496
1.15978874227896
1.1641343106506
1.1683409788405
1.17240773111011
1.1763345320707
1.18012224791486
1.18377256406094
1.18728788592232
1.19067123769385
1.19392621368958
1.1970568152033
1.20006750324628
1.20296292317903
1.20574816473384
1.20842820894191
1.21100866813636
1.2134945797821
1.21589219485923
1.21820642889194
1.22044460421299
1.22261187947168
1.22471709362942
1.22676840109296
1.22877345162605
1.23075873036585
1.23269223135898
1.23479994068024
1.23684920570038
1.23903486858711
1.24121069117277
1.24343323503817
1.24558544444827
1.24761620815331
1.24926556871008
1.25036672859365
1.25062898854108
1.24988178544678
1.24786870789955
1.24479192727875
1.24051562414831
1.2346793516671
1.22685095264333
1.21598648457593
1.20039584622406
1.17595238214062
1.14054821953634
1.09142889562549
1.02301751774398
0.940014825272777
0.853012078910587
0.841796785474537
0.863670350089591
0.910414879379912
0.929896759737074
0.941422551545395
0.942901165233302
0.971185591129025
0.988128640097298
0.996306944784483
0.999806935157047
1.00266200540025
1.00434572994757
1.00567034962987
1.00647996632501
1.00707081384574
1.00749568139986
1.00779063457994
1.00800843111905
1.00818091979507
1.00840309500078
1.00869929321366
1.00910926869337
1.00963997711698
1.01026911837588
1.01087978132218
1.01142118475633
1.01186961648506
1.01214191801986
1.01217416237695
1.01199154038734
1.01079194396114
1.00978276508423
1.00940336069771
1.00935876492482
1.00976941711916
1.01055444589987
1.01170350367219
1.01318099316136
1.01497106733203
1.0170564217734
1.01942663430278
1.02207223019926
1.02498584009698
1.02816023998698
1.03158806890822
1.03526109162377
1.03916977986894
1.0433031194038
1.04764830234273
1.05219060398848
1.05691347753002
1.06179909875533
1.0668284942815
1.07198157914436
1.07723752632713
1.08257506456734
1.08797279836093
1.09340951216177
1.09886447000035
1.1043176794411
1.10975012336598
1.11514395479132
1.12048264673169
1.12575110946831
1.13093576279158
1.13602457879596
1.14100709328954
1.14587438697289
1.15061904647081
1.15523510208181
1.15971795589848
1.16406429059926
1.16827197188292
1.17233996089361
1.1762681991723
1.18005753099757
1.18370962042618
1.18722685229963
1.19061223159271
1.19386933555557
1.19700214946401
1.20001512309563
1.20291289068493
1.20570054008112
1.20838304851911
1.21096604212081
1.21345456679664
1.21585491273135
1.21817202942496
1.22041331244246
1.2225840149507
1.22469302593407
1.22674882832621
1.22875884376349
1.23075064251992
1.23268661228436
1.23479614150868
1.23684769179735
1.23903613869172
1.24121143179943
1.24342995619138
1.24557005674272
1.24757688993248
1.24918921264731
1.25024226393414
1.25044772987876
1.24964037903117
1.24757388050786
1.2444445548782
1.24009973376175
1.23417318720616
1.22621709675281
1.21516353805825
1.1992972469887
1.17456412320311
1.13894648709542
1.08979947581768
1.02203478868095
0.940928816165298
0.856742614823818
0.845424000793501
0.865362436204221
0.91073609739699
0.930093630248692
0.941860559842758
0.943673159834309
0.971449010260677
0.987919737238092
0.996181880657146
0.999728312482858
1.00259931702655
1.00430638879255
1.00564777746994
1.00647481705304
1.00707638900513
1.00751031248294
1.00781225367428
1.00803490495705
1.00820846394196
1.00842614571704
1.0087127346208
1.00910790743743
1.00961998621159
1.01023016225108
1.01082618889006
1.01135630248154
1.01179659847103
1.01206603012747
1.01209936411462
1.01191795745967
1.01074870676747
1.00978633180777
1.00941765284272
1.00938219298354
1.00979918506483
1.01058703871787
1.01173700123772
1.01321372487891
1.01500189768664
1.01708437575855
1.01945092267666
1.02209214802993
1.02500076377475
1.02816960792039
1.03159138015299
1.0352579108292
1.03915975626508
1.04328595527979
1.04762375877542
1.0521585553243
1.05687393192606
1.06175213262658
1.06677422973972
1.07192022464328
1.07716936813324
1.08250045735258
1.0878921574142
1.09332330392021
1.09877320236403
1.10422189194072
1.10965037758706
1.11504082527155
1.12037671248147
1.12564294623792
1.13082593624151
1.13591363836893
1.14089556713183
1.1457627776189
1.15050782760173
1.15512471602837
1.15960881170235
1.16395676379215
1.16816640308385
1.17223665804849
1.17616743756645
1.17995955588347
1.18361464841591
1.18713507230046
1.19052380744396
1.19378440882294
1.19692084147892
1.19993754162603
1.2028391309979
1.20563069793225
1.20831721927611
1.21090434544068
1.213397142964
1.21580196815296
1.21812383326617
1.22037024039336
1.22254660574802
1.22466194428585
1.22672522326888
1.22874355380794
1.23074599354872
1.232684801254
1.23479020662648
1.23683604391956
1.23901926160797
1.24118436031298
1.24338809563545
1.24550296825007
1.24747099805629
1.24903091223079
1.25002137092816
1.25015703416961
1.24927945022316
1.24715267522649
1.24396378878422
1.23954036050117
1.23350911838807
1.22540469224409
1.21413297832199
1.19795830366312
1.17291374387657
1.13707439725431
1.08792295218669
1.02088699793164
0.941860382440826
0.860753866975971
0.849607869954078
0.86763006463673
0.911291105738367
0.93038637050539
0.94240617241402
0.944610812531535
0.971909051873449
0.98777865451845
0.996057264311345
0.999648837779472
1.00253633530956
1.00426566888328
1.00562375043268
1.00646904527528
1.00708221301797
1.00752612696735
1.00783583707277
1.00806390442004
1.00823857066695
1.00845038320746
1.00872465765857
1.00910114755282
1.00958975380842
1.01017554889389
1.01075250530851
1.01126817674405
1.01169810602314
1.01196342858787
1.01199637767659
1.01181395116691
1.01069317593357
1.00978861046989
1.0094336568067
1.00941076473131
1.00983496354504
1.0106255037194
1.01177559166069
1.01325040744157
1.01503531095108
1.0171133936558
1.01947465408791
1.02210981713151
1.02501170013591
1.02817322382099
1.03158716766049
1.03524545410142
1.03913872776393
1.04325611749415
1.04758496642428
1.05211076699898
1.05681722384074
1.06168665687005
1.06670022154224
1.07183800811529
1.0770793486409
1.08240311143669
1.08778802319524
1.09321296998005
1.0986572966916
1.10410107090184
1.10952531538677
1.11491220409411
1.12024521345104
1.12550924130785
1.13069068109749
1.13577746618492
1.14075908348333
1.14562655618968
1.15037240709807
1.15499059795635
1.15947645848147
1.16382659914133
1.16803881008305
1.17211198250017
1.17604598736456
1.1798416050775
1.18350043952517
1.18702481697315
1.19041769032247
1.19368259037894
1.19682346072338
1.19984472369901
1.20275098878889
1.20554734691923
1.20823877726094
1.21083096070942
1.21332899312997
1.21573930437974
1.21806698032307
1.22031967236016
1.22250296197558
1.22462603881984
1.22669832507529
1.22872663103986
1.23074115880983
1.23268275712932
1.23478187903822
1.23681628017163
1.23898874832304
1.241136661394
1.24331756794884
1.24539743844705
1.24731557392657
1.24881107420803
1.24972708941111
1.24978166276561
1.24882401724659
1.2466280810072
1.24337009586377
1.23885608657746
1.2327043762771
1.22443031723412
1.2129120373001
1.19639661393249
1.17101286544713
1.134934824315
1.08579044169281
1.01954020503824
0.942681300350436
0.864742283078991
0.853930835459853
0.870173425439252
0.912030843254696
0.930763261399165
0.943024024606467
0.945637900703964
0.972505343646146
0.987723312582548
0.995950240693578
0.999564759154967
1.00247096296028
1.00422256296899
1.00559771593927
1.00646247648661
1.00708847568357
1.00754365989135
1.00786218170769
1.00809633552045
1.00827214896079
1.00847682061382
1.00873657029829
1.00909147500559
1.00955327385986
1.01011110080289
1.0106660309384
1.01116506820491
1.01158279472535
1.01184222479538
1.01187291845809
1.01168785858141
1.01062628249265
1.00978364668251
1.00944515373441
1.00943796681209
1.00987032122077
1.0106639624559
1.01181403556093
1.01328651414438
1.0150675042623
1.01714040792701
1.0194954991356
1.02212365066752
1.02501780787511
1.0281709948618
1.03157608947806
1.03522512452825
1.03910884469025
1.04321648918102
1.04753549710383
1.05205146294341
1.05674820832575
1.06160814379569
1.06661252080835
1.0717415188243
1.0769745532613
1.08229056438861
1.08766834017926
1.09308681578802
1.09852537333772
1.10396410589207
1.10938405065286
1.11476738574363
1.12009758246858
1.12535952531387
1.13053958715443
1.13562567457658
1.14060724271467
1.1454752787562
1.15022226655773
1.15484212697238
1.1593301469236
1.16368289503089
1.16789811689026
1.17197466357021
1.17591236426269
1.17971196299976
1.18337503053952
1.18690386014848
1.1903013768027
1.19357108591083
1.19671690890368
1.19974325387054
1.2026547180461
1.20545639545272
1.20815326903695
1.21075105298982
1.21325487072927
1.21567123316926
1.21800529912171
1.22026487663231
1.2224556830577
1.22458712616927
1.22666891879832
1.22870761042779
1.23073383895727
1.23267809397424
1.23477130595675
1.23679087601572
1.2389491050632
1.24107510411801
1.24322752537475
1.24526560062843
1.24712621194046
1.24854883477259
1.24938184912881
1.24934698899824
1.24830160603512
1.24602847568295
1.24269215878817
1.23807642455791
1.2317901927779
1.22332823071695
1.21154065505758
1.19466135733096
1.16892108504357
1.13259997452438
1.0834888802164
1.01809443200695
0.943475068727051
0.86871510370088
0.858299862425903
0.872869719237564
0.912917153677431
0.931214433454871
0.943697514840688
0.946710465886047
0.973178355938769
0.987747039805156
0.995848742180894
0.999482044117305
1.00240015642593
1.0041758634207
1.00556929146635
1.00645527213076
1.007095728089
1.00756373118134
1.00789221313322
1.0081330439328
1.0083098978851
1.00850622797015
1.00874964086766
1.00908075565189
1.00951335651256
1.01004056189238
1.0105709690118
1.01105115472356
1.01145447144418
1.01170568678421
1.01173250226203
1.01154427963764
1.01054821164644
1.00976901426463
1.00944968231298
1.0094610613492
1.00990262588672
1.01070010517003
1.01185037140852
1.0133204580324
1.01509725609461
1.01716455602179
1.01951294334049
1.02213347347348
1.02501924259863
1.0281634004096
1.03155894224186
1.03519802279374
1.0390715027104
1.04316874076402
1.04747727769557
1.05198281344699
1.05666928969605
1.06151921991698
1.06651395762277
1.07163377251179
1.07685816524193
1.08216614842923
1.08753657090224
1.09294841557845
1.09838109984041
1.10381473974671
1.10923038405049
1.11461021191431
1.11993768623118
1.12519767479472
1.13037652655635
1.13546211802425
1.14044386937469
1.14531272866996
1.15006113785769
1.15468297417279
1.15917347896007
1.16352917674531
1.16774776541897
1.17182805382773
1.17576982604312
1.17957378769008
1.18324147529633
1.18677514733252
1.1901777002712
1.19345261305203
1.19660378437139
1.19963560747822
1.20255266704132
1.20536006032342
1.20806277549292
1.21066655741713
1.21317655641829
1.21559936675091
1.21794021010964
1.22020705903567
1.22240572153321
1.22454586407722
1.22663726847715
1.22868631018549
1.23072325687005
1.23266991669469
1.23475838161357
1.23676071265199
1.23890203739597
1.2410022776683
1.24312151373357
1.24511220311731
1.24690910739477
1.24825198127142
1.24899500510638
1.24886385448022
1.24772428104676
1.24536671403819
1.24194340523712
1.23721565508439
1.23078224996374
1.22211634892447
1.210040598291
1.19278053667496
1.16667453866931
1.1301158414661
1.08107413813268
1.01661216992571
0.944294647744948
0.872693669025828
0.862689913463241
0.875665134092757
0.913917907427588
0.931731516741063
0.944417685554783
0.947784567752009
0.97387146978438
0.987868774942073
0.99570688737961
0.999418981936283
1.0023223486186
1.0041247584325
1.00553854471876
1.00644796246288
1.00710470607676
1.00758708680954
1.00792652059614
1.00817435604347
1.00835193484649
1.00853882640459
1.0087644576746
1.00907009838917
1.00947167611789
1.00996604938764
1.01046956123907
1.01092854874918
1.01131506533228
1.01155571657778
1.01157754781328
1.01138623410662
1.01045947856947
1.00974414843135
1.00944651613063
1.00947896369851
1.00993075615691
1.01073290717699
1.01188370477296
1.01335150616893
1.01512399887143
1.01718544014362
1.01952675850974
1.02213922767011
1.02501611700513
1.02815072463755
1.03153618005356
1.03516477078494
1.03902748724083
1.04311381655646
1.04741140909268
1.05190607363046
1.05658187640743
1.06142144140369
1.06640622748441
1.07151659552896
1.07673213227389
1.08203192213248
1.08739487360827
1.0928000154557
1.0982267979425
1.10365535739749
1.10906675119934
1.11444315652705
1.11976802483447
1.12502620429182
1.13020401706289
1.13528930687135
1.14027145642766
1.14514137227367
1.14989145222603
1.15451552795099
1.15900879319693
1.16336772692847
1.16758997686343
1.17167430822151
1.17562045714267
1.1794290893178
1.1831017064796
1.18664053090657
1.19004843040231
1.193328856651
1.19648568523585
1.19952329391515
1.202446254775
1.20525966956064
1.20796852891235
1.21057860602321
1.21309507692138
1.21552461900651
1.21787250454015
1.22014687704754
1.22235357794774
1.2245025767517
1.22660346774423
1.22866260227871
1.23070902251578
1.23265767320778
1.23474284749737
1.23672601034115
1.23884821434536
1.24091929091977
1.24300112243639
1.24493943302715
1.24666718403311
1.24792426796065
1.24857113395836
1.24833759501342
1.24709796347951
1.24464903414193
1.24113026149737
1.23628053326505
1.22968793640609
1.22080320619626
1.20842253851147
1.19076849533009
1.16429282903068
1.12750881712323
1.07857890842081
1.0151281898292
0.945163997968925
0.876682325457756
0.867084194742135
0.878530970065531
0.915010175280852
0.932309012693904
0.945178303457407
0.948829558313382
0.974562151010931
0.988086059292127
0.99554160724282
0.999386270848999
1.00224141278388
1.00406919844821
1.00550590995023
1.00644116101744
1.00711596872216
1.0076140952293
1.00796522919367
1.00822017850386
1.00839808958504
1.00857465544726
1.00878141769903
1.00906028903239
1.00942937219162
1.00988896603849
1.01036330069872
1.01079872405615
1.01116609573277
1.01139403080904
1.01141021859291
1.01121617302742
1.01036089155341
1.00970902837979
1.00943531761933
1.00949097597878
1.00995393929357
1.01076162558079
1.01191336151059
1.01337908578525
1.01514726997771
1.01720271636164
1.01953672332825
1.02214081887025
1.02500846709482
1.0281331373999
1.03150810566349
1.035125807529
1.0389773729346
1.04305242818876
1.04733874000239
1.05182222918147
1.05648709095829
1.06131606376532
1.06629071313517
1.07139149140314
1.07659807103539
1.08188960665515
1.08724506438672
1.09264351619218
1.09806444233484
1.10348799636074
1.10889524119887
1.11426834903709
1.11959075702479
1.12484729107638
1.13002424410982
1.13510942485316
1.14009217662059
1.14496336266678
1.14971533511789
1.15434187881344
1.15883813858148
1.16320054706714
1.16742669998588
1.1715153181577
1.17546608746844
1.1792796326329
1.18295742054214
1.18650163627465
1.18991511920528
1.19320129323205
1.19636401054702
1.19940763305871
1.20233672241816
1.20515638180814
1.20787160049139
1.21048818000065
1.21301131899383
1.21544777709911
1.2178028608422
1.22008488962115
1.22229967094502
1.22445752759762
1.22656758134901
1.22863637446554
1.2306908275375
1.23264089649707
1.23472441321036
1.23668683683832
1.23878807067559
1.24082693128911
1.24286752176027
1.24474893562338
1.24640266636189
1.24756857212929
1.2481137552106
1.24777230749998
1.24642716175969
1.24388012123773
1.24025748334758
1.23527597960793
1.22851255861284
1.21939490451301
1.20669419433026
1.18863600737556
1.16179158982517
1.12480039351854
1.07602947471326
1.01367094087502
0.946101561657958
0.88068364505119
0.871472019706674
0.881452666400164
0.916181770362862
0.932944297914581
0.945974703109492
0.949838267932993
0.975235547677601
0.988379516830929
0.995421380131141
0.999370095408928
1.00216779996482
1.00401009519138
1.00547186861388
1.00643528207952
1.0071297430819
1.00764478171682
1.0080081993827
1.00827027938257
1.00844817725027
1.00861377088625
1.008800870254
1.00905195111941
1.00938730787921
1.00981037565343
1.0102533558946
1.01066290397797
1.01100892356584
1.01122221946967
1.01123242520727
1.01103617351111
1.01025334757847
1.00966384844052
1.00941592320689
1.00949659830783
1.00997159756897
1.01078568643806
1.01193881128135
1.01340274062814
1.01516669715096
1.01721610562722
1.01954265679684
1.022138169072
1.02499632173089
1.02811077752589
1.03147496834519
1.03508149653213
1.03892163908863
1.04298517257157
1.04725998570845
1.05173211410447
1.05638588534348
1.06120415360992
1.06616859110526
1.07125974103611
1.07645736015977
1.08174067078792
1.08708869382033
1.09248054116688
1.09789571974054
1.10331439696792
1.10871763813161
1.1140876074496
1.11940772506075
1.12466279227346
1.12983907067479
1.1349243322388
1.13990787947666
1.14478053115725
1.14953459275107
1.15416380163251
1.15866325300993
1.16302933308492
1.16725958431415
1.1713526829013
1.17530826257475
1.1791269064601
1.18281004703324
1.18635983151264
1.18977907141763
1.19307116241494
1.19623993340061
1.19928973267145
1.20222510985958
1.20505116393447
1.20777288221534
1.21039609457981
1.2129260178215
1.21536949119817
1.21773183595172
1.22002155132991
1.22224433527566
1.22441092046884
1.2265296493979
1.22860753243866
1.23066844550525
1.23261921629977
1.23470277638988
1.23664315968287
1.23872187003672
1.24072575126685
1.24272157841343
1.24454196941293
1.24611728522012
1.24718716451086
1.24762567328685
1.24717127481356
1.24571549153161
1.24306374247353
1.2393289180475
1.23420600458787
1.2272604794102
1.21789652024149
1.20486218973219
1.18639300729899
1.15918485276423
1.12200608394845
1.07344161575055
1.01226444419309
0.947123511569307
0.884700745350065
0.875846915794576
0.884422028439486
0.91742660978912
0.933636661368698
0.946803225571539
0.950818941313189
0.975861874592386
0.988737658459573
0.995394301157376
0.99932778170461
1.00211032971681
1.00394985416296
1.00543674558733
1.00643047993771
1.00714600344657
1.00767899071848
1.00805520230596
1.00832442644291
1.00850207013314
1.00865626216423
1.00882313168159
1.00904560416486
1.00934618721741
1.00973115869685
1.01014072783119
1.01052218512255
1.01084481158138
1.01104175809796
1.01104585873255
1.01084801085464
1.0101377199096
1.00960892337473
1.00938830644792
1.00949548822172
1.00998330826078
1.01080464954105
1.0119596379785
1.01342210742282
1.0151819811395
1.01722538254744
1.01954441302463
1.02213121732414
1.02497970906357
1.02808376562087
1.0314369829077
1.03503215017668
1.03886069857273
1.04291256527018
1.04717576576783
1.05163645234964
1.05627908689694
1.0610866386125
1.06604088544726
1.07112245994322
1.07631120069981
1.08158639433347
1.08692711294035
1.09231250454169
1.0977220989416
1.10313607386141
1.10853549364332
1.11390251159766
1.11922052830815
1.12447431840066
1.12965011040303
1.13473563820265
1.13972016259241
1.14459445718556
1.14935078038349
1.15398282203332
1.15848562760447
1.16285553732291
1.16709003966453
1.17118776650643
1.17514829788158
1.17897217511034
1.18266079714268
1.18621627298533
1.18964138702861
1.19293950656419
1.1961144402656
1.19917052226599
1.20211228398177
1.20494481857139
1.20767311250791
1.21030302219383
1.21283977674943
1.21529029125154
1.21765987954747
1.21995722415965
1.22218783111542
1.22436290598371
1.2264896902278
1.2285759967474
1.2306417194324
1.23259234613956
1.23467762463536
1.23659485861519
1.23864972490693
1.24061610135008
1.24256390290448
1.24431947092784
1.2458123633951
1.24678181489278
1.24710909918566
1.24653710165431
1.24496582545238
1.24220290899972
1.23834768273739
1.23307391512567
1.2259353613363
1.21631244205684
1.2029327802353
1.18404839419993
1.15647826629188
1.11912865218881
1.07082336719129
1.01091874168303
0.94824326420677
0.888736065952626
0.880204323607299
0.887433563091852
0.918741280331709
0.934386488812237
0.947660843166157
0.951785119509216
0.97640952721623
0.989161196324463
0.995471905781589
0.999214237567682
1.00207127729133
1.00389343599862
1.0054008024134
1.00642672305562
1.00716459521789
1.00771649926249
1.00810600060967
1.00838242886005
1.00855969849518
1.00870224275322
1.00884849770393
1.00904171050745
1.00930663173426
1.00965210475394
1.01002634178975
1.01037761313197
1.01067497650913
1.01085404972151
1.0108520508891
1.01065322959337
1.01001482863283
1.00954463700963
1.00935253448099
1.00948741191987
1.00998875453543
1.01081816343169
1.0119755000212
1.0134368818993
1.0151928677736
1.01723035357526
1.01954186563453
1.02211991040985
1.02495865360901
1.02805220682034
1.03139433914129
1.03497804629567
1.03879492038258
1.04283506899599
1.04708663807287
1.05153589719805
1.05616744308694
1.06096435761967
1.06590852280503
1.07098065798607
1.07616068020622
1.08142793618798
1.08676154495643
1.09214068627316
1.09754490869879
1.10295439644526
1.10835020954646
1.11371448752476
1.11903060903368
1.12428332021581
1.12945881515954
1.13454478874539
1.13953045960609
1.1444065560351
1.14916528947493
1.15380030273027
1.15830659196717
1.16268045246967
1.16691931852258
1.17102177843636
1.17498735732955
1.1788165548888
1.18251073788964
1.18607197689193
1.18950303012876
1.19280723952495
1.19598839530691
1.19905081035676
1.20199899522785
1.20483803911374
1.2075729271631
1.21020953924299
1.21275311010513
1.21521062578047
1.21758736852451
1.21989220703671
1.22213036800496
1.22431359873179
1.22644770928476
1.22854169955091
1.23061054017182
1.23256006262139
1.23464864153957
1.23654175389841
1.23857164121455
1.24049819665858
1.24239493964714
1.24408217366081
1.24548896706178
1.24635397462764
1.24656585921025
1.24587194666767
1.24418054535962
1.24130014055279
1.23731643658406
1.23188259816058
1.22454050009431
1.21464697842639
1.20091193442767
1.18160334290781
1.15367127785217
1.11623417385579
1.0683205543923
1.00964274366847
0.949472344881162
0.892791291854549
0.884540630032716
0.890483244263353
0.920123659325182
0.935194771747294
0.948544994082392
0.952749332175695
0.976857693815427
0.98960854310086
0.995634527039578
0.9990606360723
1.00204983231956
1.00384808308171
1.00536466017834
1.00642388558389
1.00718531445075
1.00775707114979
1.00816038003209
1.00844414507794
1.00862104059617
1.00875184629351
1.00887725776735
1.0090407081238
1.00926922729201
1.00957396656873
1.00991109894319
1.01023022367007
1.010500618245
1.01066045099558
1.01065241420736
1.01045319977849
1.00988544278288
1.00947142016774
1.00930874222662
1.00947221546484
1.00998769689046
1.01082594005689
1.01198610875938
1.01344680102947
1.01519913415649
1.01723084708344
1.01953490172668
1.02210420069317
1.0249331778071
1.02801619590247
1.03134721113569
1.03491944105409
1.03872464583217
1.04275311286963
1.04699312091928
1.05143105601215
1.05605164894854
1.06083809063595
1.06577236472499
1.07083527382351
1.07600680913382
1.08126637251906
1.08659312502329
1.09196627328894
1.097365380163
1.10277063236125
1.10816308219639
1.11352485260039
1.11883929810427
1.12409113484868
1.12926652144884
1.13435311326127
1.13934008677805
1.14421812529473
1.14897939390611
1.15361748938467
1.15812735956188
1.16250525636158
1.16674856016075
1.17085581690098
1.17482649584759
1.17866105561101
1.18236083243319
1.18592785819415
1.18936486911797
1.19267518567436
1.19586257290947
1.19893131706898
1.20188591104507
1.20473144079285
1.20747288822749
1.21011615302107
1.21266646812801
1.21513088461665
1.21751462733196
1.21982675339775
1.22207211939008
1.22426308798586
1.22640370514912
1.22850458308535
1.23057483356743
1.23252219424956
1.23461551267871
1.23648362844378
1.23848754990906
1.24037216222981
1.24221502735708
1.24383068734736
1.2451480061811
1.24590489732837
1.24599753308373
1.24517767802374
1.24336171503063
1.24035764872864
1.23623757108915
1.2306347579147
1.22307927741077
1.2129046754252
1.19880051660828
1.17905608471684
1.1508884688232
1.11360282154545
1.06621896464938
1.00864280585481
0.950818838596822
0.896867091399794
0.888852810511516
0.89356796525559
0.921572330699969
0.936062815592207
0.949453564095436
0.953720860094981
0.977190376820612
0.989985199195376
0.995848074391137
0.998940055872401
1.00204426296976
1.00381894399952
1.00533000341563
1.00642184484367
1.00720794629602
1.00780047867333
1.00821815717404
1.00850947648703
1.00868611142375
1.00880522407083
1.00890970394562
1.00904302933921
1.00923454988622
1.00949748869455
1.0097959018775
1.01008106098847
1.01032293286114
1.01046228630064
1.01044826927695
1.01024915936888
1.00975029139525
1.00938974450179
1.00925712218672
1.00944981305763
1.00997996117046
1.01082774446995
1.01199122002166
1.01345163638468
1.01520058392173
1.01722671044945
1.01952342082807
1.02208404693238
1.02490330469783
1.0279758236106
1.03129576377654
1.03485657682288
1.03865019785008
1.0426671030025