5 	0.00391112967796274 	3.46944695195361e-18 	-0.0373922490504433 	-8.74759109576352e-05 	1.1401336391722e-20
5 	0.0118766651674915 	6.93889390390723e-18 	-0.0873384922133066 	-0.00045553739442308 	-1.45984987578672e-21
5 	0.020134001548576 	0 	-0.103878255379618 	-0.00115787196004141 	-1.51388746336104e-20
5 	0.0286938283423949 	-6.93889390390723e-18 	-0.104609093478898 	-0.00193395730427515 	-8.81453021650047e-21
5 	0.0375672266585909 	1.73472347597681e-18 	-0.101336498044396 	-0.00274426647333593 	-7.32526303770335e-22
5 	0.0467656835403033 	1.04083408558608e-17 	-0.0972475056209548 	-0.00360348471690235 	-2.18617269997846e-22
5 	0.0563011068347008 	1.04083408558608e-17 	-0.0929564844298303 	-0.00450505361650332 	-2.24381233450568e-21
5 	0.0661858406082649 	3.46944695195361e-18 	-0.0885907110352163 	-0.00544264322197611 	-1.80700503953333e-21
5 	0.0764326811267816 	5.20417042793042e-18 	-0.0841710653351804 	-0.00641442399858946 	-2.47897603002389e-21
5 	0.0870548934207257 	1.21430643318376e-17 	-0.0796889993456317 	-0.00742034673550456 	2.23744436037937e-21
5 	0.0980662284574838 	1.21430643318376e-17 	-0.0751263366293013 	-0.00846090358603228 	-3.9298648828064e-21
5 	0.109480940942647 	1.04083408558608e-17 	-0.0704612860192337 	-0.00953686184196512 	-1.24557296889347e-22
5 	0.121313807773416 	1.04083408558608e-17 	-0.065670404420524 	-0.0106491835040012 	5.8373454345803e-17
5 	0.13358014716801 	1.04083408558608e-17 	-0.0607291924592144 	-0.0117989694378848 	6.12049862712162e-17
5 	0.146295838495839 	8.67361737988404e-18 	-0.0556121811392637 	-0.012987419028919 	-5.03577442077442e-17
5 	0.159477342834115 	8.67361737988404e-18 	-0.0502928139817726 	-0.0142158000374348 	-5.31464589547185e-17
5 	0.173141724277517 	1.21430643318376e-17 	-0.044743240430126 	-0.0154854226271483 	-1.65854442968764e-21
5 	0.18730667202848 	1.21430643318376e-17 	-0.0389340662915547 	-0.0167976140918844 	1.1130274559277e-21
5 	0.201990523296728 	1.21430643318376e-17 	-0.0328340794718656 	-0.0181536923131918 	-2.53770365633374e-21
5 	0.217212287037675 	1.56125112837913e-17 	-0.0264099581822772 	-0.0195549365291576 	-1.13776302408175e-22
5 	0.232991668560441 	2.25514051876985e-17 	-0.0196259645441649 	-0.0210025544000741 	2.25057239193749e-21
5 	0.249349095037321 	3.12250225675825e-17 	-0.0124436253762114 	-0.0224976451813328 	-2.04128834765379e-22
5 	0.266305741947753 	3.46944695195361e-17 	-0.0048214020946314 	-0.024041157675746 	-2.9804979641905e-22
5 	0.283883560490998 	2.60208521396521e-17 	0.00328563764320384 	-0.0256338279260272 	-3.89982821734589e-22
5 	0.30210530600303 	1.73472347597681e-17 	0.0119260090112393 	-0.0272761103942821 	-4.94919030977119e-21
5 	0.320994567414413 	2.25514051876985e-17 	0.0211521330757347 	-0.0289681069586827 	1.87110664510888e-22
5 	0.340575797787321 	2.42861286636753e-17 	0.0310207160929113 	-0.0307094986301952 	2.81546342652824e-21
5 	0.360874345971201 	2.60208521396521e-17 	0.0415930466921086 	-0.0324994701085787 	-2.30242246250241e-21
5 	0.38191648941809 	2.42861286636753e-17 	0.0529352202138731 	-0.0343366133329881 	4.79751534197523e-25
5 	0.403729468200045 	1.73472347597681e-17 	0.065118282484092 	-0.036218818516794 	-5.11771306319574e-25
5 	0.426341520272733 	2.08166817117217e-17 	0.0782182682521442 	-0.0381431534757744 	4.81170257264912e-21
5 	0.449781918030829 	1.90819582357449e-17 	0.0923160966731645 	-0.0401057016592662 	-6.89425690266649e-21
4.99999999999999 	0.474081006202548 	1.56125112837913e-17 	0.107497275409007 	-0.0421013416462044 	-1.19509077412392e-21
5 	0.499270241132363 	1.56125112837913e-17 	0.12385136666416 	-0.0441239358712494 	-6.18925266118858e-21
5 	0.525382231502762 	1.56125112837913e-17 	0.141471350524613 	-0.0461676327322623 	-3.34428713843441e-22
5 	0.552450780547767 	2.25514051876985e-17 	0.160462790972971 	-0.0482228035162902 	-6.71230071259166e-22
5 	0.580510929812849 	3.20923843055709e-17 	0.181049840507339 	-0.0502627599286917 	-6.60348584596856e-21
5 	0.60959900451791 	3.98986399474666e-17 	0.203743912771614 	-0.0522708494205293 	1.5272845630895e-20
5 	0.639752660582032 	3.90312782094782e-17 	0.229032670114816 	-0.0542179564280779 	1.3028411174897e-21
5 	0.671010933370886 	3.72965547335014e-17 	0.256967212547365 	-0.0560674827819108 	9.60676937954735e-22
4.99999999999999 	0.7034142882299 	3.29597460435593e-17 	0.28733558997257 	-0.0577968746256258 	6.31341597836874e-22
4.99999999999999 	0.737004672868605 	2.68882138776405e-17 	0.319856328336068 	-0.0593858795536499 	1.93528578688081e-20
4.99999999999999 	0.771825571663975 	3.12250225675825e-17 	0.354279623493836 	-0.0608125243156114 	1.45769724811728e-21
4.99999999999999 	0.807922061953053 	2.68882138776405e-17 	0.39039144981717 	-0.0620532666705349 	-1.95590905512763e-20
4.99999999999999 	0.845340872387742 	1.21430643318376e-17 	0.427964859224661 	-0.0630846568632477 	1.96737720085244e-20
5 	0.884130443427308 	1.30104260698261e-18 	0.466708265672148 	-0.0638857994813146 	2.17526486690659e-20
5 	0.924340990046897 	3.90312782094782e-18 	0.506240622574406 	-0.0644407807626752 	-1.91230457896046e-20
5 	0.966024566743241 	6.93889390390723e-18 	0.546100857430143 	-0.0647404095041655 	4.46779881330113e-20
5 	1.00923513492173 	6.50521303491303e-18 	0.585784061612805 	-0.0647830810027451 	7.63466983829439e-24
5 	1.05402863275205 	1.2793585635329e-17 	0.624791221567347 	-0.064574854140456 	-4.77814238886624e-22
5 	1.10046304758287 	1.99493199737333e-17 	0.662679547404133 	-0.0641288375610331 	-4.45756665421745e-20
5 	1.14859849100923 	2.71050543121376e-17 	0.699102538176559 	-0.0634638851914347 	-4.37790381858287e-20
5 	1.19849727668994 	2.82976767018717e-17 	0.733830947756008 	-0.0626024995791604 	4.33467379004341e-20
5 	1.25022400101563 	2.35271871429354e-17 	0.766745662615252 	-0.0615675819042214 	4.21356717795978e-20
5 	1.30384562673185 	2.42861286636753e-17 	0.797812833870055 	-0.0603788571299818 	-2.70353166647633e-22
5 	1.35943156962565 	3.12250225675825e-17 	0.827107019864289 	-0.0590576984039218 	-3.68366636347145e-20
5 	1.41705378838762 	3.12250225675825e-17 	0.854722538836074 	-0.0576184794810408 	3.73492310319997e-20
5 	1.47678687776592 	2.08166817117217e-17 	0.880755245275815 	-0.0560710031043806 	-3.04647767065434e-20
5 	1.53870816513277 	1.73472347597681e-17 	0.905293885714064 	-0.0544226997067141 	1.66809821896712e-21
5 	1.60289781058851 	2.08166817117217e-17 	0.928406700421479 	-0.0526662294409729 	6.09453308053576e-20
5 	1.66943891073266 	2.08166817117217e-17 	0.950157168871954 	-0.0507716183087474 	5.96189351188966e-20
5 	1.73841760623657 	2.42861286636753e-17 	0.970514629016583 	-0.04874162109534 	5.09257444297384e-21
5 	1.80992319335659 	3.46944695195361e-17 	0.98931543395243 	-0.0465910416089199 	4.9100195576441e-20
5 	1.88404823953248 	4.5102810375397e-17 	1.0063627321803 	-0.0443330348047518 	-2.06511945133195e-21
5 	1.96088870322037 	5.20417042793042e-17 	1.02120516301874 	-0.0420199753418033 	-4.45525009545605e-21
5 	2.02024009608345 	5.55111512312578e-17 	1.03097766036216 	-0.0401735261165898 	-2.37531690567107e-21
5 	2.06000503604194 	0 	1.0369881398768 	-0.0388901196186987 	0
5 	2.09836474743796 	0 	1.04190943806342 	-0.0376856195043844 	0
5 	2.13536888877258 	-3.46944695195361e-18 	1.04603053243052 	-0.0365175287405435 	0
5 	2.17106536369585 	-6.93889390390723e-18 	1.04940496673624 	-0.0353853728352787 	0
5 	2.20550038302044 	-6.93889390390723e-18 	1.05208205359087 	-0.034288320649651 	0
5 	2.23871852454378 	-6.93889390390723e-18 	1.05410552935295 	-0.0332253149860612 	0
5 	2.27076279075613 	-6.93889390390723e-18 	1.05551389146465 	-0.0321952210891154 	0
5 	2.3016746645094 	-6.93889390390723e-18 	1.05634091097482 	-0.0311967949934782 	0
5 	2.33149416271872 	0 	1.05661616073561 	-0.0302286996433454 	0
5 	2.36025988816626 	6.93889390390723e-18 	1.05636557267165 	-0.0292895311174777 	0
5 	2.38800907947441 	0 	1.05561201919643 	-0.0283778443034275 	0
5 	2.41477765931295 	-6.93889390390723e-18 	1.05437590187328 	-0.0274921777689746 	0
5 	2.44060028090272 	-3.46944695195361e-18 	1.05267572444979 	-0.0266310769834546 	0
5 	2.46551037287586 	-6.93889390390723e-18 	1.05052862518375 	-0.0257931150492235 	0
5 	2.48954018255081 	-1.38777878078145e-17 	1.04795084389793 	-0.0249769103523341 	0
5 	2.512720817678 	-6.93889390390723e-18 	1.0449581020915 	-0.0241811407192033 	0
5 	2.53508228671037 	-6.93889390390723e-18 	1.04156587943064 	-0.0234045538501423 	0
5 	2.55665353765073 	-1.38777878078145e-17 	1.03778957661873 	-0.0226459740201834 	0
5 	2.57746249552636 	-6.93889390390723e-18 	1.03364456233513 	-0.0219043052764544 	0
5 	2.59753609853934 	0 	1.02914610976811 	-0.0211785315846048 	0
5 	2.61690033293929 	0 	1.02430923533863 	-0.0204677145486156 	0
5 	2.63558026666389 	3.46944695195361e-18 	1.01914845774616 	-0.0197709894225567 	0
5 	2.65360008179049 	6.93889390390723e-18 	1.01367749898303 	-0.0190875601442771 	0
5 	2.67098310584102 	1.04083408558608e-17 	1.00790895035924 	-0.0184166940688408 	0
5 	2.68775184198056 	1.38777878078145e-17 	1.00185392612653 	-0.0177577170012077 	0
5 	2.70392799814879 	1.04083408558608e-17 	0.995521725564578 	-0.0171100090298586 	0
5 	2.71953251516198 	1.38777878078145e-17 	0.988919522140999 	-0.0164730015942834 	0
5 	2.73458559382185 	2.08166817117217e-17 	0.982052096265672 	-0.0158461768026077 	0
5 	2.74910672106653 	2.42861286636753e-17 	0.974921626543817 	-0.0152290713422253 	0
5 	2.76311469519732 	2.42861286636753e-17 	0.967527553368968 	-0.0146212814632698 	0
5 	2.776627650214 	1.38777878078145e-17 	0.959866527859987 	-0.0140224503717107 	0
5 	2.78966307929018 	6.93889390390723e-18 	0.951932444958896 	-0.0134323294066329 	0
5 	2.80223785741904 	6.93889390390723e-18 	0.943715905962829 	-0.0128509287586825 	0
5 	2.81436826325886 	6.93889390390723e-18 	0.935200727751104 	-0.0122779766903547 	0
5 	2.82607000020647 	6.93889390390723e-18 	0.926338797422185 	-0.0117097350273439 	0
5 	2.83735821672613 	1.04083408558608e-17 	0.917066853500588 	-0.0111419452355863 	0
5 	2.8482475259599 	1.38777878078145e-17 	0.907349497683849 	-0.0105721174901468 	0
5 	2.85875202464506 	1.38777878078145e-17 	0.897166886420161 	-0.0100001217538919 	0
5 	2.86888531136304 	1.38777878078145e-17 	0.886497544494265 	-0.009426599314981 	0
5 	2.87866050414343 	1.73472347597681e-17 	0.87531174605605 	-0.00885247672761019 	0
5 	2.88809025744591 	2.08166817117217e-17 	0.863570863729856 	-0.00827883593064509 	0
5 	2.89718677854204 	2.42861286636753e-17 	0.851229571332115 	-0.00770693749469198 	0
5 	2.90596184331818 	2.77555756156289e-17 	0.83823907858721 	-0.00713829419322039 	0
5 	2.91442681151997 	3.12250225675825e-17 	0.82455043163797 	-0.00657474028073718 	0
5 	2.922592641458 	3.81639164714898e-17 	0.810117231738311 	-0.00601846700541765 	0
5 	2.93046990419394 	3.46944695195361e-17 	0.794897176187684 	-0.00547201017736029 	0
5 	2.93806879722526 	2.77555756156289e-17 	0.778851844509925 	-0.0049381892194831 	0
5 	2.94539915768638 	2.77555756156289e-17 	0.761944271070914 	-0.00442001531097806 	0
5 	2.95247047508334 	2.77555756156289e-17 	0.744134065732544 	-0.00392060845585964 	0
5 	2.9592919035784 	2.77555756156289e-17 	0.725369954290885 	-0.00344317685827129 	0
5 	2.96587227384055 	2.77555756156289e-17 	0.705579052440065 	-0.00299107550224191 	0
5 	2.97222010447726 	2.77555756156289e-17 	0.684650120104314 	-0.00256774824999778 	0
5 	2.97834361306218 	2.77555756156289e-17 	0.662404128569336 	-0.00217610384693696 	0
5 	2.98425072677325 	2.77555756156289e-17 	0.638547324342978 	-0.0018167992677989 	0
5 	2.98994909265477 	2.77555756156289e-17 	0.612631303371732 	-0.00148954010147881 	0
5 	2.99544608751689 	2.77555756156289e-17 	0.584025252399036 	-0.0011934475260215 	0
5 	3.00074882748522 	2.42861286636753e-17 	0.551810532472079 	-0.000928717205624328 	0
5 	3.00586417721304 	2.08166817117217e-17 	0.514549691826664 	-0.000696562719685986 	0
5 	3.01079875876789 	1.73472347597681e-17 	0.469918548984533 	-0.000497369137146931 	0
5 	3.01555896020418 	2.08166817117217e-17 	0.414129807658742 	-0.000330477226461667 	0
5 	3.02015094383281 	2.08166817117217e-17 	0.341832549256132 	-0.000193702042779859 	0
5 	3.02458065419861 	1.38777878078145e-17 	0.250292047863543 	-8.95964341116717e-05 	0
5 	3.02885382577582 	1.38777878078145e-17 	0.148200036089436 	-2.61288395674199e-05 	0
5 	3.03297599039165 	1.21430643318376e-17 	0.048095698410717 	-1.70271350091583e-06 	0
