7 	0.0118766634903468 	1.73472347597681e-17 	1.30593559839532 	0.0024387905913942 	145.799195554849 	0.00840099979676412
7 	0.0201339998195326 	1.90819582357449e-17 	1.30597794618307 	0.0067494504734341 	44.277611636569 	0.0107958331144288
7 	0.0286938265600376 	2.25514051876985e-17 	1.3060543742624 	0.010986490734491 	22.957723974556 	0.0103554670265472
7 	0.0375672248214896 	2.25514051876985e-17 	1.3061486148295 	0.0144511093664194 	15.5447903330713 	0.00949396101071332
7 	0.0467656816470147 	2.25514051876985e-17 	1.30624173359405 	0.0173625207134307 	11.8911149737675 	0.00880173560844044
6.99999999999999 	0.0563011048837713 	2.08166817117217e-17 	1.3063266753351 	0.0199246291480774 	9.70161317210738 	0.00826991462905251
7 	0.0661858385982334 	1.21430643318376e-17 	1.30640086390951 	0.0222523278434218 	8.23246397535458 	0.00785118447219483
7 	0.0764326790561828 	0 	1.30646216134437 	0.0244130604862222 	7.17281228189399 	0.00751233908015026
7 	0.0870548912880936 	-3.46944695195361e-18 	1.30650868493116 	0.0264496128400048 	6.36944644221859 	0.00723194263907298
7 	0.0980662262613554 	3.46944695195361e-18 	1.3065388356802 	0.0283909256678761 	5.73786185253057 	0.00699591230054557
7 	0.109480938681567 	1.04083408558608e-17 	1.30655115753095 	0.0302575802858006 	5.22748980799289 	0.00679468694053758
6.99999999999999 	0.121313805445942 	1.04083408558608e-17 	1.30654424640084 	0.0320648010741751 	4.80613788079846 	0.00662156074812111
6.99999999999999 	0.133580144772717 	6.93889390390723e-18 	1.30651671283489 	0.0338242084999775 	4.45229226099649 	0.00647169316969378
6.99999999999999 	0.146295836031327 	3.46944695195361e-18 	1.30646716251387 	0.0355448979587282 	4.15100175886904 	0.00634150298001074
6.99999999999999 	0.159477340299017 	3.46944695195361e-18 	1.30639418386162 	0.0372341325567611 	3.89153593623631 	0.00622828490956302
7 	0.173141721670501 	6.93889390390723e-18 	1.30629634064351 	0.0388978033399269 	3.66598319360988 	0.00612995916032356
7 	0.187306669348262 	6.93889390390723e-18 	1.30617216792864 	0.0405407431486769 	3.46837519891444 	0.00604490277944781
7 	0.20199052054208 	6.93889390390723e-18 	1.30602017012477 	0.0421669446649051 	3.29412003604717 	0.00597183294775272
7 	0.217212284207436 	6.93889390390723e-18 	1.30583882028285 	0.0437797134414059 	3.13962370961673 	0.00590972406045213
7 	0.232991665653523 	1.04083408558608e-17 	1.30562656013589 	0.0453817752504198 	3.00203053344027 	0.00585774729931123
7 	0.249349092052728 	1.04083408558608e-17 	1.30538180045277 	0.0469753501997703 	2.87904079716789 	0.00581522544502412
7 	0.266305738884589 	0 	1.30510292133806 	0.04856220178223 	2.76877997724684 	0.0057815981464747
7 	0.283883557348484 	-6.28837260041593e-18 	1.30478783232462 	0.0501439219890429 	2.66976058751927 	0.00575649138003702
7 	0.302105302780516 	-1.01915004213637e-17 	1.30443338375231 	0.0517222036162944 	2.58083376040805 	0.00573977377180567
7 	0.320994564111403 	-1.43114686768087e-17 	1.30403935361323 	0.0532966290252108 	2.50069068820726 	0.00573072564127692
7 	0.340575794403482 	-1.56125112837913e-17 	1.30360402356383 	0.054867255407314 	2.428417727147 	0.00572901826169605
7 	0.360874342506392 	-1.47451495458029e-17 	1.3031256287148 	0.0564336826721796 	2.36323108255559 	0.00573433653994106
7 	0.38191648587238 	-1.64798730217797e-17 	1.30260234836552 	0.0579950178550947 	2.30445145651445 	0.00574636320404352
7 	0.403729464573739 	-2.08166817117217e-17 	1.3020322935635 	0.0595498291554879 	2.25148359450921 	0.00576476278350625
7 	0.426341516566396 	-2.60208521396521e-17 	1.30141349096587 	0.0610960897906067 	2.20379949548279 	0.00578916487335778
7 	0.44978191424532 	-2.94902990916057e-17 	1.30074386248029 	0.0626311118341582 	2.16092437046988 	0.00581914625965599
7 	0.474081002339049 	-2.42861286636753e-17 	1.30002120018965 	0.0641514703154841 	2.12242466623785 	0.00585421157345866
7 	0.499270237192413 	-2.42861286636753e-17 	1.29924313612851 	0.0656529180982535 	2.08789764138825 	0.00589377224743018
7 	0.525382227488298 	-2.77555756156289e-17 	1.29840710659088 	0.0671302924651158 	2.05696211337801 	0.00593712369057232
7 	0.552450776461161 	-2.42861286636753e-17 	1.29751031082485 	0.0685774149418414 	2.02925010028237 	0.0059834207900783
7 	0.580510925656956 	-1.73472347597681e-17 	1.29654966422677 	0.0699869867450294 	2.00439917147777 	0.00603165211480237
7 	0.609599000296117 	-1.04083408558608e-17 	1.29552174654497 	0.0713504833819039 	1.98204540492949 	0.00608061355305562
7 	0.639752656298308 	-6.93889390390723e-18 	1.29442274625242 	0.0726580534215051 	1.96181693180896 	0.00612888258779214
7 	0.671010929029843 	-3.46944695195361e-18 	1.2932484033478 	0.0738984283381114 	1.94332813656756 	0.00617479500826692
7 	0.703414283836854 	-1.04083408558608e-17 	1.29199395453861 	0.075058852621458 	1.92617467551108 	0.00621642657950257
7 	0.737004668429647 	-1.38777878078145e-17 	1.29065408486481 	0.0761250459964388 	1.90992957955611 	0.00625158301136132
7 	0.761419519668443 	-6.93889390390723e-18 	1.28965679280157 	0.0768179034343118 	1.89874179564493 	0.00627160584061633
7 	0.779162313841552 	-4.55364912443912e-18 	1.28891871595517 	0.0772677863303265 	1.89090455911937 	0.00628228541992015
6.99999999999999 	0.807992742715646 	4.55364912443912e-18 	1.28769762365958 	0.0779162207563793 	1.8783484312968 	0.00629297007640551
6.99999999999999 	0.845475280399477 	9.10729824887824e-18 	1.28606761279607 	0.0786067627268187 	1.86207549674576 	0.00629380075730212
6.99999999999999 	0.884326557652535 	8.67361737988404e-18 	1.28432534223927 	0.0791338806586374 	1.8448062853483 	0.0062773043928419
6.99999999999999 	0.924596372923087 	3.46944695195361e-18 	1.28246240500467 	0.079477513187186 	1.82601406941794 	0.00624040511368606
6.99999999999999 	0.966336321272196 	-3.46944695195361e-18 	1.28047039339058 	0.0796174180405855 	1.80517347203765 	0.00618011105897184
6.99999999999999 	1.00959985787075 	-5.20417042793042e-18 	1.27834174753686 	0.079533834869709 	1.78177736728294 	0.00609368176579267
6.99999999999999 	1.05444236361788 	-6.93889390390723e-18 	1.27606983865382 	0.0792082766912917 	1.75535781092506 	0.00597882237031257
6.99999999999999 	1.10092121293912 	-3.46944695195361e-18 	1.27365342694968 	0.0786245110009373 	1.72551223567865 	0.00583390587647338
6.99999999999999 	1.14909584382294 	0 	1.27106488966231 	0.0777695300911304 	1.69193049347193 	0.00565818239521561
7 	1.19902783015393 	-3.46944695195361e-18 	1.2682734259082 	0.0766351780307357 	1.65442616083425 	0.00545202231427652
7 	1.25078095640108 	-8.45677694538693e-18 	1.26529884715389 	0.0752167952807342 	1.61294186873444 	0.00521687352274222
7 	1.30442129471847 	-1.01915004213637e-17 	1.26216410975736 	0.0735083606331985 	1.56750633283612 	0.00495500184759388
7 	1.36001728451516 	-1.04083408558608e-17 	1.25892782939322 	0.0715389467784194 	1.51876533402465 	0.00467265897783558
7 	1.41763981454947 	-1.38777878078145e-17 	1.25565701055339 	0.0693326887520726 	1.46740699199991 	0.00437589128371425
7 	1.47736230760124 	-1.56125112837913e-17 	1.25236649903987 	0.066920048105406 	1.41431847858422 	0.00407139400852349
7 	1.53926080777324 	-1.04083408558608e-17 	1.24904374365456 	0.0643363925217057 	1.36051925441976 	0.0037659662743402
7 	1.60341407047001 	-1.38777878078145e-17 	1.24569284753043 	0.0616203700224102 	1.30713098766899 	0.00346612025531072
7 	1.66893489902569 	-1.04083408558608e-17 	1.24237517501322 	0.0588523281969768 	1.25609786632529 	0.00318181157258135
7 	1.7027752979414 	-2.54787510534094e-18 	1.24068971711122 	0.0574294216017615 	1.23078844675037 	0.00304116338695894
7 	1.73884798288128 	2.65629532258949e-18 	1.23896612550221 	0.0559481166362999 	1.20633840322491 	0.00290504590100148
7 	1.81031024575141 	1.04083408558608e-17 	1.23563666422894 	0.0530592580178187 	1.16115101829358 	0.00265139586972269
7 	1.88432958821743 	1.04083408558608e-17 	1.23236274741126 	0.0501722687174971 	1.12119585472353 	0.0024203652186823
7 	1.9609947218388 	1.90819582357449e-17 	1.22919981154563 	0.0473785329832114 	1.08841305943164 	0.00221813530871077
7 	2.02024009608346 	2.77555756156289e-17 	1.22699338301706 	0.0452504663851052 	1.06885963257085 	0.00208006402276606
7 	2.06000503604194 	3.46944695195361e-18 	1.22541565710816 	0.0438183789067877 	1.05846055517952 	0.00199454734210505
7 	2.09836474743796 	3.46944695195361e-18 	1.22404696143344 	0.0425149917948508 	1.05136551158305 	0.00192222333148327
7 	2.13536888877258 	3.46944695195361e-18 	1.22279400382914 	0.0412833323713765 	1.04698647339011 	0.00185874116467321
7 	2.17106536369585 	3.46944695195361e-18 	1.22163703643954 	0.0401170986797093 	1.04520084895096 	0.00180313337887565
7 	2.20550038302044 	3.46944695195361e-18 	1.22057077717753 	0.039010461972798 	1.04590719707688 	0.00175456176523388
7 	2.23871852454378 	3.46944695195361e-18 	1.21958932612022 	0.0379581179772073 	1.04902650911164 	0.00171230721717597
7 	2.27076279075613 	0 	1.21868650667395 	0.0369552860948041 	1.05450172778754 	0.00167575610317
7 	2.30167466450941 	-3.46944695195361e-18 	1.21785655579988 	0.0359976859579574 	1.06229701860914 	0.00164438723733095
7 	2.33149416271872 	-6.93889390390723e-18 	1.21709410940504 	0.0350815038125002 	1.072397046175 	0.00161776018225911
7 	2.36025988816627 	-1.38777878078145e-17 	1.21639415446646 	0.0342033544133273 	1.08480636501043 	0.00159550503018361
7 	2.38800907947441 	-2.08166817117217e-17 	1.21575201253103 	0.0333602417031702 	1.09954898373043 	0.00157731362720387
7 	2.41477765931295 	-2.08166817117217e-17 	1.21516332457125 	0.0325495203570077 	1.1166681390073 	0.00156293214377394
7 	2.44060028090272 	-1.73472347597681e-17 	1.21462403380298 	0.031768859442853 	1.13622630242793 	0.00155215486850247
7 	2.46551037287586 	-1.90819582357449e-17 	1.21413036825769 	0.0310162088758793 	1.1583054359578 	0.00154481909694618
7 	2.48954018255081 	-2.08166817117217e-17 	1.21367882365209 	0.0302897689615688 	1.18300750855515 	0.00154080099372719
7 	2.512720817678 	-1.73472347597681e-17 	1.21326614671287 	0.0295879630742559 	1.21045528605081 	0.00154001231890679
7 	2.53508228671037 	-1.38777878078145e-17 	1.21288931909358 	0.0289094133584481 	1.24079340788422 	0.00154239792469193
7 	2.55665353765073 	-1.38777878078145e-17 	1.21254554198597 	0.0282529192431498 	1.27418976719501 	0.00154793394442066
7 	2.57746249552636 	-1.38777878078145e-17 	1.21223222148574 	0.027617438503948 	1.31083721486575 	0.00155662661141926
7 	2.59753609853934 	-1.38777878078145e-17 	1.21194695474203 	0.0270020705794778 	1.35095561329858 	0.00156851166030531
7 	2.61690033293929 	-1.73472347597681e-17 	1.21168751689757 	0.0264060418380206 	1.3947942720268 	0.00158365427750287
7 	2.63558026666389 	-2.08166817117217e-17 	1.21145184881072 	0.0258286924893753 	1.44263480487464 	0.00160214958121147
7 	2.65360008179049 	-2.08166817117217e-17 	1.21123804553915 	0.0252694648420656 	1.49479445759212 	0.00162412362404443
7 	2.67098310584102 	-2.42861286636753e-17 	1.21104434555785 	0.024727892613333 	1.55162996618112 	0.00164973492434395
7 	2.68775184198056 	-2.77555756156289e-17 	1.21086912067872 	0.0242035910074219 	1.61354202018754 	0.00167917654522175
7 	2.70392799814879 	-2.77555756156289e-17 	1.21071086663692 	0.0236962472855543 	1.68098042304622 	0.00171267875422553
7 	2.71953251516198 	-2.77555756156289e-17 	1.21056819430746 	0.0232056115587177 	1.75445006450661 	0.00175051231193026
7 	2.73458559382185 	-2.42861286636753e-17 	1.21043982151615 	0.0227314875425597 	1.83451785014737 	0.00179299245568842
7 	2.74910672106653 	-2.08166817117217e-17 	1.21032456540927 	0.0222737230235325 	1.92182077265031 	0.00184048366659324
7 	2.76311469519732 	-2.08166817117217e-17 	1.21022133534863 	0.0218321997986383 	2.01707536247822 	0.00189340533526975
7 	2.776627650214 	-2.42861286636753e-17 	1.2101291263 	0.0214068228697475 	2.12108882687601 	0.0019522384779888
7 	2.78966307929018 	-3.12250225675825e-17 	1.2100470126855 	0.0209975086996913 	2.23477228251517 	0.00201753370237259
7 	2.80223785741904 	-3.46944695195361e-17 	1.20997414267236 	0.0206041723732634 	2.35915661797126 	0.0020899206865882
7 	2.81436826325886 	-3.81639164714898e-17 	1.20990973287252 	0.020226713553395 	2.49541170036464 	0.00217011952426306
7 	2.82607000020647 	-3.81639164714898e-17 	1.20985306342858 	0.0198650011814648 	2.64486988352382 	0.00225895440886987
7 	2.83735821672613 	-3.12250225675825e-17 	1.20980347346227 	0.0195188569393891 	2.80905510736993 	0.00235737029906643
7 	2.8482475259599 	-2.77555756156289e-17 	1.20976035686072 	0.019188037565448 	2.98971933410673 	0.00246645343848845
7 	2.85875202464506 	-2.77555756156289e-17 	1.20972315837416 	0.0188722161875306 	3.18888869492972 	0.00258745692487283
7 	2.86888531136304 	-2.77555756156289e-17 	1.20969136999494 	0.0185709628936595 	3.40892259185376 	0.00272183296942697
7 	2.87866050414343 	-2.77555756156289e-17 	1.20966452758356 	0.0182837247815252 	3.65259021702064 	0.00287127410839423
7 	2.88809025744591 	-3.29597460435593e-17 	1.20964220770101 	0.0180098056909087 	3.92317067347054 	0.00303776649798869
7 	2.89718677854204 	-3.81639164714898e-17 	1.20962402460058 	0.017748345691985 	4.22458534842833 	0.00322365964988321
7 	2.90596184331818 	-4.16333634234434e-17 	1.20960962732448 	0.0174983001353697 	4.56157478200355 	0.0034317587118584
7 	2.91442681151997 	-4.5102810375397e-17 	1.20959869684395 	0.0172584176087204 	4.93993759819266 	0.00366544792166014
7 	2.922592641458 	-4.5102810375397e-17 	1.20959094317275 	0.0170272154082322 	5.36685711289232 	0.00392885756272639
7 	2.93046990419394 	-4.5102810375397e-17 	1.2095861023755 	0.0168029499965645 	5.85135365767782 	0.00422709227080283
7 	2.93806879722526 	-4.16333634234434e-17 	1.20958393337896 	0.0165835781749757 	6.40492027269284 	0.00456654692547296
7 	2.94539915768638 	-3.46944695195361e-17 	1.2095842144743 	0.0163667019836223 	7.04243113775044 	0.00495534933281061
7 	2.95247047508334 	-3.12250225675825e-17 	1.20958673936315 	0.0161494859953086 	7.78346473079977 	0.00540398933927193
7 	2.9592919035784 	-3.12250225675825e-17 	1.20959131253557 	0.0159285284295985 	8.65427349327818 	0.00592622675509499
7 	2.96587227384055 	-3.12250225675825e-17 	1.20959774364832 	0.0156996549512758 	9.69078983461784 	0.0065404236941037
7 	2.97222010447726 	-3.46944695195361e-17 	1.20960584037474 	0.0154575812617879 	10.9433463567479 	0.0072715343563226
7 	2.97834361306218 	-3.46944695195361e-17 	1.20961539889312 	0.0151953475719705 	12.4843341458766 	0.00815412885656349
7 	2.98425072677325 	-3.12250225675825e-17 	1.20962619026833 	0.0149033430870048 	14.4211050584668 	0.00923705802359559
7 	2.98994909265477 	-3.12250225675825e-17 	1.20963793783866 	0.0145675630824444 	16.9186813260252 	0.0105907041077064
7 	2.99544608751689 	-3.12250225675825e-17 	1.20965027782195 	0.0141663609160998 	20.241833325099 	0.0123181061258657
7 	3.00074882748522 	-2.94902990916057e-17 	1.20966271063203 	0.0136640950954591 	24.8379517139885 	0.0145708131553557
7 	3.00586417721304 	-3.12250225675825e-17 	1.20967453705478 	0.012998053107839 	31.5127631378433 	0.0175649476061962
7 	3.01079875876789 	-3.46944695195361e-17 	1.20968435630303 	0.0120504461897994 	41.8386694894485 	0.0215621444668937
7 	3.01555896020418 	-3.46944695195361e-17 	1.20968811893677 	0.0105902424007235 	59.2265181851626 	0.0266273975125955
7 	3.02015094383281 	-3.46944695195361e-17 	1.2096791273793 	0.00820207746971349 	92.3527033389235 	0.0313984719653768
7 	3.02458065419861 	-3.46944695195361e-17 	1.20966081559191 	0.00460308560822918 	171.540541178398 	0.0301860442768186
7 	3.02885382577582 	-3.12250225675825e-17 	1.20964843469763 	0.00129320745171178 	487.225615882905 	0.0179933206165178
7 	3.03297599039165 	-3.46944695195361e-17 	1.20964583016157 	0.000135876430703419 	1721.60077674839 	0.0050986389725161
