/*--------------------------------*- C++ -*----------------------------------*\
  =========                 |
  \\      /  F ield         | OpenFOAM: The Open Source CFD Toolbox
   \\    /   O peration     | Website:  https://openfoam.org
    \\  /    A nd           | Version:  7
     \\/     M anipulation  |
\*---------------------------------------------------------------------------*/
FoamFile
{
    version     2.0;
    format      ascii;
    class       volSymmTensorField;
    location    "2000";
    object      aijDelta;
}
// * * * * * * * * * * * * * * * * * * * * * * * * * * * * * * * * * * * * * //

dimensions      [0 2 -2 0 0 0 0];

internalField   nonuniform List<symmTensor> 
15600
(
(0.00201320945470569 -3.19352979113618e-05 7.32794488469271e-28 -0.00242317974893896 -2.07090969415133e-29 0.000409743505479296)
(0.00203451585095625 -0.000173091283781105 8.53426327766256e-24 -0.00250487203875039 -3.29598006166482e-25 0.000469651735326261)
(0.000531734798613869 -0.000188761810163691 0 -0.000780264651470481 0 0.000248758430427641)
(0.000139170462580924 -0.000137524192978416 1.89571498038971e-28 -0.000244808462105431 -8.29056927428613e-29 0.000105681032139819)
(0.000162439892392385 -0.000311704959660466 -9.45790194306848e-29 -0.000271017588946694 1.47569604704035e-29 0.000108599834499098)
(0.000177403151647606 -0.000579897721269704 1.25158178951955e-23 -0.000319580580866965 -7.84490272311942e-24 0.000142165143839776)
(0.000105371926443533 -0.000561242170264293 2.17875511311361e-28 -0.000238732117162871 -1.56816171830692e-28 0.000133328116403733)
(3.38291919494946e-05 -0.000359172697134966 4.16256467261126e-24 -0.000111245983366688 -3.3256189831666e-24 7.74144429701583e-05)
(1.12819669033903e-05 -0.000346178057284636 -1.00625429505641e-21 -0.000103550484509838 8.4160568804445e-22 9.22624051852051e-05)
(7.50249994456021e-06 -0.000330203452597068 -9.38954129163816e-22 -0.000101130513307277 7.89760064313583e-22 9.36199207817011e-05)
(4.49012894434714e-06 -0.000211237280706383 1.67305289694649e-28 -6.81116536675718e-05 -1.35699160183907e-28 6.36236885019001e-05)
(8.55599077532228e-06 -0.000177848474082956 -3.36950509219057e-28 -6.44172061323217e-05 2.79487594514683e-28 5.58606623839797e-05)
(1.54486452759403e-05 -0.000239346169944139 7.09297709508838e-28 -9.20728656889241e-05 -5.66514075997137e-28 7.6627026073194e-05)
(2.29898208192868e-05 -0.000243242756586773 1.15534566212108e-27 -9.4734787693001e-05 -8.97810491491749e-28 7.17513535703648e-05)
(2.44965455318336e-05 -0.000216075520682293 -5.6552706768496e-24 -8.56914919413427e-05 4.45663161123734e-24 6.11991456550586e-05)
(2.12257795730685e-05 -0.000178798951681122 -2.48196159078185e-27 -6.89014206200442e-05 1.92221997000289e-27 4.76838827994587e-05)
(2.3802437972269e-05 -0.000199283516385912 -9.15926889595918e-24 -8.0609074713573e-05 7.14454045389558e-24 5.68143224242452e-05)
(5.36554261830479e-05 -0.000380270976711139 2.33986727455307e-23 -0.000169786210936126 -1.77693723162263e-23 0.000116128037402923)
(6.83617488775192e-05 -0.000415946865788394 3.09429286611345e-26 -0.000212059006161174 -2.15244664916978e-26 0.000143682336723396)
(0.000122851814628568 -0.000629050357715605 -1.13547009381032e-25 -0.000395091388453552 7.56828976917975e-26 0.000272205907253068)
(0.000163313377292726 -0.000674511107527719 8.88949338709146e-23 -0.000527738367263619 -5.59752531192106e-23 0.000364409890352564)
(0.000276112531500693 -0.000794858782350319 -1.33560215406387e-22 -0.000764044649668694 7.36876289706444e-23 0.000487683976513478)
(0.000381384602288904 -0.000809148440711731 -1.72681054530145e-26 -0.000989882713086797 -6.07344157427097e-27 0.000608245831034299)
(0.000540791801449108 -0.000809614940042816 2.20250689897804e-25 -0.00126075213847749 -9.27144259873804e-26 0.000719605905291524)
(0.000653545737232893 -0.000689135692741024 0 -0.00142874116997491 0 0.000774823206009802)
(0.000830136687522144 -0.000566590723489091 0 -0.00171036826090309 0 0.000879795486430088)
(0.000868426423165694 -0.000356317893287061 -2.08173196478421e-20 -0.00177993405013663 2.64155150500243e-21 0.000911274991338201)
(0.000962999544916596 -0.000117537297507311 -2.38412232942397e-20 -0.00191828360823377 1.07695842743901e-21 0.000955578426298031)
(0.00113136088608118 -4.77231579998545e-05 9.28814828501411e-29 -0.00198910272523757 -1.35668039438358e-30 0.000858420903253241)
(0.00128461000418364 -6.06734276698318e-05 3.74253294287246e-36 -0.00231543305345466 -3.18352958302267e-38 0.00103091576224309)
(0.00132479384126292 -7.46359621406535e-05 0 -0.00245491637919095 0 0.00113017165190837)
(0.00136190953577435 -8.71869753569542e-05 -5.96722376436018e-20 -0.00265532545048744 2.31382178289813e-22 0.00129344922843917)
(0.0013602781498775 -9.73344253271671e-05 -6.74361897997131e-20 -0.00286562168486102 1.74516668433866e-22 0.00150538181936388)
(0.00135378378700148 -0.000112301016375722 0 -0.00317922316458151 0 0.00182548090434639)
(0.00134933929373444 -0.000121748667118411 0 -0.00338361644603533 0 0.00203423659512789)
(0.00128699922575594 -0.000128830916105139 0 -0.00347801066295607 0 0.00219082581988532)
(0.00130779483272432 -0.00012995122971988 0 -0.00349529594550275 0 0.00218742202056298)
(0.0013205508943358 -0.000132075572840367 -5.77158779030328e-25 -0.00358373039818075 -4.52210884464939e-28 0.00226307774588239)
(0.00133061294559215 -0.000133723620725945 8.02361352099738e-20 -0.00369835564409811 2.20211970896427e-22 0.0023674716486179)
(0.00143736718737408 -0.000132799724255541 7.96240403626078e-20 -0.00384050394928486 1.85888745788473e-22 0.00240314444231048)
(0.00135912286130089 -0.000127839370964491 -5.67452015436362e-25 -0.0037822547961374 -4.65710173586644e-28 0.00242308404105679)
(0.00136960688133756 -0.00013033548131699 -5.51263017474022e-25 -0.00400332029884017 -7.77364677387787e-28 0.00263351575106064)
(0.00129054007249557 -0.000121337462036353 5.28133279341675e-25 -0.0038336603954711 7.44748229609911e-28 0.00254292110206555)
(0.00133323241290036 -0.000117022563879102 -4.85492412943218e-25 -0.00392502838209305 -7.68200597242691e-28 0.00259151468414325)
(0.00134883955024051 -0.00011026847594848 4.80027029717162e-25 -0.0038820925842358 7.59552654342525e-28 0.00253320383787013)
(0.00133707398872172 -0.000106279245565543 0 -0.0038965590358732 0 0.00255933492590401)
(0.00142061480510789 -0.000101812204485792 -5.70643216527636e-20 -0.00406718592203558 -3.39275085455642e-22 0.00264644778929515)
(0.00153689216388885 -9.94545991413546e-05 -5.59467394927292e-20 -0.00431951159089784 -3.15450040646251e-22 0.00278253705081008)
(0.00136745890599527 -8.54440443882893e-05 -3.38514121616716e-25 -0.00388161112417547 -8.712298545739e-28 0.00251386114273151)
(0.00132754318621231 -7.74752300814424e-05 1.60874987487007e-25 -0.00383132298348305 4.39319450343281e-28 0.00250352467053366)
(0.00137851424095861 -7.12835888030907e-05 -1.32937703934095e-25 -0.00395103268826599 -4.16559835513566e-28 0.00257246466387158)
(0.00142125726425564 -6.96781482275182e-05 2.61346639276018e-25 -0.00408836414145539 8.79255113148293e-28 0.00266690985896941)
(0.00124196348002884 -5.58314230102029e-05 -2.55142448843847e-20 -0.00363279989445402 -2.98227458124747e-22 0.00239057479903019)
(0.00130728606199292 -4.84782671128561e-05 -2.07276048430514e-20 -0.00357704459018678 -2.65364703322468e-22 0.00226965964059717)
(0.00136552723398 -4.30598585765579e-05 -3.98922358271818e-26 -0.00357590184621819 -1.69707543610902e-28 0.00221031636859174)
(0.00138721034016459 -3.94552786796468e-05 0 -0.00366596864710117 0 0.00227868310856723)
(0.00147829743607033 -4.00135522496057e-05 1.93917982125567e-36 -0.00382413961144731 3.82497598458817e-38 0.00234566578223884)
(0.00135257324524419 -2.89400250219488e-05 -8.36456568160506e-27 -0.00353487005378627 -8.71088993538873e-29 0.00218210945607877)
(0.00141082734752443 -2.68644891002515e-05 1.13695114372665e-26 -0.00368665757770549 1.36105689770553e-28 0.00227573019342808)
(0.00138511254229676 -2.33861575589056e-05 -2.60160835868174e-27 -0.00363129723256081 -4.4530801933355e-29 0.00224610455247221)
(0.00139508275452898 -1.8989096971649e-05 0 -0.00357529445765733 0 0.00218014560054775)
(0.00150718730043811 -2.1128451643616e-05 -3.67856723686084e-27 -0.00377688794598667 9.59379727987754e-29 0.00226957454863743)
(0.00138525220451128 -1.30826833025613e-05 3.41318379827941e-27 -0.00350992398463625 -8.90167049592895e-29 0.00212447172518573)
(0.00119354284872774 -3.74383630261944e-06 -1.72665633558446e-36 -0.00309238944347771 2.44037030265598e-38 0.0018987333212481)
(0.00141755106471498 -7.59003491150179e-06 0 -0.00336945608931311 0 0.00195185672306698)
(0.00164070559408049 -1.3275965107896e-05 2.63124595474577e-26 -0.00372667884167019 -2.01564543103732e-28 0.00208589104102826)
(0.00164857087056836 -1.26486770568845e-05 -2.61409929418075e-26 -0.00370110449053869 2.00251036551328e-28 0.00205242143161955)
(0.00168087697865292 -1.65636488476757e-05 0 -0.00372399539861122 0 0.00204285165992273)
(0.00108559122585248 9.48855298464115e-06 0 -0.00271332043154604 0 0.00162762600698958)
(0.00125784802064878 6.07544782946334e-06 0 -0.00301732107002501 0 0.00175939979780796)
(0.00155005158642631 -1.0563884225121e-05 0 -0.00344304659286449 0 0.00189288699576031)
(0.00159098179749497 -1.3248431984879e-05 0 -0.0033828869644411 0 0.00179180943833879)
(0.00103478360764614 1.32648303764028e-05 -2.15274505970014e-20 -0.00245035625222583 4.86182099834098e-23 0.00141553654493453)
(0.0013762300399147 3.90908650796889e-06 -5.3152379221992e-20 -0.00292945803346361 1.35813337875277e-22 0.00155317963264713)
(0.00162890828835724 -1.23317363072732e-05 -3.09774555674349e-20 -0.0032551234869581 7.85039439371252e-23 0.00162611758772477)
(0.000999902346245545 1.53552003113702e-05 2.73004550682261e-25 -0.00230186899258592 -3.41733858248573e-28 0.00130194471609166)
(0.00139411487179673 1.06195167331433e-06 -1.76841096656842e-25 -0.00291500347538814 1.81551878190101e-28 0.00152087499864494)
(0.00145557191882631 -6.57669349772124e-06 1.88406554031197e-25 -0.00295075545481161 -1.06908774050358e-28 0.00149513759611915)
(0.0011928496889124 5.17667262403673e-06 -1.65046317423216e-25 -0.00259599061557722 9.36533208622908e-29 0.00140310358821073)
(0.00146376878759976 -1.61657297182663e-05 -3.06289829753733e-20 -0.00289760189650324 -4.9735911314277e-24 0.00143385034238055)
(0.00127504489925699 -2.0114916372091e-06 -2.77131226828287e-20 -0.0026594212938255 -8.29184332452455e-25 0.00138433534151811)
(0.000892428784175094 1.30127354438364e-05 1.27770889580153e-25 -0.00202396082678546 1.33973054224836e-29 0.00113154689102391)
(0.0013895003207112 -1.21230398711408e-05 -1.76008728796502e-25 -0.00274343883792967 -6.88198046665829e-29 0.00135400571299198)
(0.00128445497578142 -9.65991269451259e-06 3.33227935258574e-25 -0.00261966026548015 2.28417785355648e-28 0.0013352103212858)
(0.00101238453060632 2.62371483414917e-07 -1.4279465008077e-25 -0.00227187914011229 -1.40578599847398e-28 0.0012595151686195)
(0.000911328672012767 1.42937354879571e-06 2.45634885827095e-25 -0.0021304990958243 5.31946780989142e-28 0.00121921782718326)
(0.000909240920435293 -3.75321786094088e-06 -4.93219715301716e-25 -0.00217820608678782 -1.43542841831268e-27 0.00126909638274996)
(0.00105017690987505 -2.51896023579682e-05 2.72437760089976e-25 -0.00243635166989765 1.00400026044643e-27 0.00138626917644294)
(0.000673726776551225 -4.08171643511925e-06 1.68576045842182e-25 -0.00190988421269248 1.05739652119866e-27 0.00123625077660008)
(0.00073564659009199 -1.77100656044398e-05 -3.58929497273406e-25 -0.00219589641951337 -2.65894930477997e-27 0.00146039013525467)
(0.000453707470709898 -7.83345924808717e-06 1.34993360239749e-25 -0.00181755754244612 1.18215003551099e-27 0.00136389097367908)
(0.000350637537985008 -9.76428899600058e-06 0 -0.0018337893000627 0 0.00148350286081348)
(0.000186789270294113 3.48741408884757e-05 0 -0.00233864218248038 0 0.00215214461991183)
(3.65800527149323e-06 0.000283947408766986 2.355301086756e-23 -0.00267206103527073 2.56002597571834e-24 0.00266812154602771)
(-8.0696008313579e-05 0.000565990819795963 2.159790515176e-25 -0.00289522166723313 4.43197088025011e-26 0.002975501729603)
(-0.000220687529756786 0.000840859934951085 5.49024131703779e-26 -0.0029196987295805 2.98235219340547e-26 0.00313975064419303)
(-0.000380551776841453 0.001059128139534 -4.25608068638977e-25 -0.00282284205187127 -1.59058079152521e-25 0.003202686374885)
(-0.000542887735699449 0.00121517814330905 2.26767528843847e-25 -0.00263359051388534 9.31511913758488e-26 0.0031756382474561)
(-0.000689357635136469 0.00128676753639482 0 -0.00237423013454851 0 0.00306259624883082)
(-0.00073751340379098 0.00120013866054371 0 -0.00194281214983292 0 0.00267994511121695)
(-0.000767097666717873 0.00123998463381303 -2.73452180585557e-22 -0.00175592344135982 -1.81372619718918e-22 0.00252237514738057)
(-0.000716682657267584 0.00117308116744563 -2.590480553725e-22 -0.00148225832937386 -1.83322181500352e-22 0.00219841802684592)
(-0.000549611765058213 0.000857902583450098 0 -0.0010167184670919 0 0.00156610269143815)
(-0.000372422961395775 0.00055456252247743 0 -0.000635681808983392 0 0.0010080441505766)
(-0.000311143581260276 0.000452786730963557 0 -0.000510607304783993 0 0.000821727263466775)
(-0.000393058789078756 0.000534983398441876 1.40761380272e-22 -0.000633384565320163 1.08165789118195e-22 0.00102628525846843)
(-0.00046661145934976 0.000579161345224911 1.63777244338477e-22 -0.000715110791438529 1.27967926622083e-22 0.00118166378479686)
(-0.000472249323277784 0.000538995044684337 1.6134878425041e-22 -0.000679616018232054 1.28460894102427e-22 0.00115179293706976)
(-0.000333894242485751 0.00037950354225602 1.12042734092585e-22 -0.000456071890656004 9.06787193062495e-23 0.000789798795631873)
(-0.000387211360783672 0.000420409956034282 -1.26015463513666e-22 -0.00049529650206903 -1.04801269241299e-22 0.00088251691292206)
(-0.000584641565842355 0.000617360098052161 -2.07085525601978e-22 -0.000731188107740575 -1.72970494014266e-22 0.00131519255552904)
(-0.00053260563597839 0.000661859812606409 0 -0.000690895406700835 0 0.00122302285838718)
(-0.00041280554132278 0.000677236680437954 3.53066749517844e-27 -0.000628617055261197 2.70871731040892e-27 0.00104133562549658)
(-0.000442970000490262 0.000987032325677059 -1.09548503438962e-26 -0.0009603310015765 -7.93956974220674e-27 0.00140229880114093)
(-0.000142188470830114 0.00113740360604954 6.29156440750392e-27 -0.00101700120522487 4.3392191987846e-27 0.00115917766415297)
(0.000234162829263533 0.000681099543664049 0 -0.000648275472577646 0 0.000414649968877556)
(0.000396512159710989 0.000322222207433018 -8.27675614428946e-23 -0.000451957097114398 -2.50401260704823e-23 5.62838467215548e-05)
(0.000695245408030073 0.000213044311611177 0 -0.000672508414703329 0 -2.1757612878295e-05)
(0.000904278734220606 7.42862639734484e-05 0 -0.00107136719734348 0 0.000167589331378517)
(0.00130102275024666 -1.91571145014532e-05 0 -0.0015327063573752 0 0.000231820315325584)
(0.0105011382384095 8.59186013706968e-05 0 -0.0112516699176219 0 0.000740817561118556)
(0.0115904378308877 -0.000454970508807835 3.31386300365656e-22 -0.0126671190990868 -1.23007066796252e-23 0.00104501052690635)
(0.00660914082640807 -0.00172003343267841 2.64215574436685e-26 -0.0079061721153359 1.25207207791643e-26 0.00130710491125598)
(0.00233388843512048 -0.00206725896787099 1.15692988312567e-19 -0.00415860907604625 -5.41843067443802e-20 0.00182739645339445)
(0.000953722201222452 -0.00274736214141078 2.67691189407681e-19 -0.00287476174574116 -1.28727304369812e-19 0.00192076683098183)
(0.000163306906779448 -0.00303064563268471 -2.96973678403923e-22 -0.00220579295395691 1.86142308217532e-22 0.00204210611955953)
(-4.10578227517155e-05 -0.00328082333191964 -3.05762189304322e-27 -0.00189401304063017 1.18432699461259e-27 0.0019342634509374)
(-0.000142112461096213 -0.00309835967232725 -1.47942659790965e-22 -0.00132353380430936 1.18196095906015e-22 0.00146548088488539)
(-0.0002054951558222 -0.00282843738696835 3.3103402044284e-20 -0.00109961011319383 -2.76871375496576e-20 0.00130490388910831)
(-0.000148562148215121 -0.00263780095460028 2.93664639879147e-20 -0.000976196258389683 -2.47006386938842e-20 0.00112452085788097)
(-7.54002362598538e-05 -0.002331270053289 -7.67883771568953e-26 -0.000851786239728785 6.44886419056447e-26 0.00092720309982382)
(1.18519571290844e-05 -0.0021638677039875 8.71406829919761e-26 -0.000835351106716613 -7.12851705996568e-26 0.000823487250505196)
(7.6520667530954e-05 -0.0021095474036985 -8.88700206407999e-26 -0.000807117492219484 7.26998500018386e-26 0.000730664342444414)
(0.00015635124628549 -0.00209140737516354 -3.60999897508398e-22 -0.000786605393566216 2.9245916256112e-22 0.000630307309588865)
(0.000221260153890609 -0.00213752722285934 7.07233411325386e-22 -0.000798766036861546 -5.61620324103226e-22 0.000577285046477852)
(0.000273022982481884 -0.00223989013021406 -4.19697606033408e-25 -0.000783962075276791 3.31077647252693e-25 0.000510913824581731)
(0.000300656282555778 -0.00234242125346649 3.99888956519314e-22 -0.00081368572551927 -3.11916117677547e-22 0.000512969281101982)
(0.000360421853919033 -0.00259594554631684 -5.90973887626302e-22 -0.000969751725053732 4.48775951124405e-22 0.000609108165268821)
(0.000446468700625399 -0.00276553651037394 2.29279806708378e-24 -0.00119938364946637 -1.70734221453521e-24 0.000752608886129143)
(0.000544014192639554 -0.00292233307007125 -3.52543657746529e-24 -0.00153469334334823 2.32439079218047e-24 0.000990078572575275)
(0.00068662193250304 -0.00307370241815497 -1.40329309905262e-21 -0.00195515354136891 8.83567518926933e-22 0.00127127991670245)
(0.000982329257948534 -0.00313782143437407 1.87179247608959e-21 -0.00260821537091452 -1.03276321539027e-21 0.00162611517213999)
(0.0013395338244204 -0.00308829461383062 4.27260121647138e-21 -0.00328249935629238 -2.03701342050487e-21 0.00194400272533741)
(0.00179847075562724 -0.00295850918164022 -7.87204898986452e-24 -0.00401630630906067 3.40329732573677e-24 0.00221892654125358)
(0.00229036987781406 -0.00265104909424349 2.88440628943146e-21 -0.00478534290451548 -8.76841010383865e-22 0.00249549975769368)
(0.00280440272612728 -0.00218257572203263 -3.17851636845153e-21 -0.00555611576201102 6.81358988391246e-22 0.00275207408143905)
(0.003224696271125 -0.00150502085222601 2.72621040879467e-19 -0.00613735218238227 -3.43901798329885e-20 0.0029101857583209)
(0.00369491145135357 -0.0007560908641985 2.94128498928341e-19 -0.00664594960380141 -1.30933057109723e-20 0.00295563029740675)
(0.00429451916170142 -0.000593810816198653 -3.4362428083375e-27 -0.0073707750042252 6.6583685920372e-29 0.00308068320301194)
(0.00458873446412752 -0.000709076889207118 -4.87163770147066e-35 -0.0083337323256346 4.14398563142558e-37 0.00374266315845925)
(0.004701487698177 -0.00082526930023018 0 -0.00912416155791919 0 0.00441995431187307)
(0.00479105554424255 -0.000912769276010861 8.21403545588921e-19 -0.00995713786294329 -3.17757096318495e-21 0.00516428253636423)
(0.00461848407662346 -0.00097575338713805 8.88247183661986e-19 -0.0105250869682895 -2.29029159478018e-21 0.00590695390335539)
(0.00433909193127622 -0.00106602102868194 6.3754480755549e-23 -0.0111137738612546 -1.01549028563893e-25 0.0067735948070734)
(0.00428044878089258 -0.00111740250039318 -3.36308860997815e-23 -0.0116553821954636 3.00617166270852e-26 0.00737411131901502)
(0.00411335929841854 -0.00116096725729292 -3.4472124805392e-23 -0.0121079771739194 -3.98090822480266e-26 0.00799481704610109)
(0.00427942897224068 -0.00118052505298008 3.57491234392209e-23 -0.0125905048709687 4.12837851835637e-26 0.0083090882200502)
(0.00447005394829744 -0.00117642830175476 1.85442695983279e-34 -0.0130909807720406 2.77943641911782e-37 0.00861947970111726)
(0.00448367459755084 -0.00117059649869542 -1.0723386407395e-18 -0.0134724379577318 -2.94126708579097e-21 0.00898950187735)
(0.00472843712924548 -0.00113874139115097 -1.01393059763502e-18 -0.0135977962983194 -2.36433680755139e-21 0.00887066147285638)
(0.00476754105373146 -0.00109602930947598 0 -0.0139437026467239 0 0.00917693217158774)
(0.0045492451840599 -0.00108029235018866 1.58819817542128e-23 -0.0139358893082914 7.53305782151577e-26 0.00938732382852476)
(0.00470444469758517 -0.00103663936874302 -9.61643948089699e-25 -0.014181358375835 5.15529709488127e-27 0.00947895818303084)
(0.00477452803779463 -0.000987419745396173 -1.52077221788562e-23 -0.0141789909784428 -8.19059722107681e-26 0.00940462464747058)
(0.00506441932325193 -0.000931980123304532 -1.34710898588051e-23 -0.0144549963411938 -8.46593101501686e-26 0.00939136017066496)
(0.00513103876393256 -0.000891201210040134 2.61525524539623e-23 -0.0145932269898616 1.77685206284941e-25 0.00946525721771447)
(0.00530849492770333 -0.000848947874526859 7.57504951789943e-19 -0.0147171139160692 4.50339706875373e-21 0.00940952309819042)
(0.0055066851593506 -0.000760326826826669 6.95893614656943e-19 -0.0149229648778704 3.9225319469991e-21 0.00941618893725291)
(0.00553226645472495 -0.00068905456962121 1.06611104846755e-23 -0.0148132939245227 7.97166018625205e-26 0.00928450911801636)
(0.00541611105519318 -0.000627168300502861 0 -0.0146481907864035 0 0.00923429585689008)
(0.00540221344285783 -0.000554995469668046 -3.69119361306795e-24 -0.014425767682958 -4.07062100755754e-26 0.00902310185104919)
(0.00545102144109974 -0.000496651420373567 3.6800868008336e-24 -0.0144274721470562 4.05837249718858e-26 0.00897773661316531)
(0.00548883340234037 -0.000441981999536195 3.67926622713032e-19 -0.0143032769709638 4.30143340440607e-21 0.00881584228721553)
(0.00575643132927298 -0.000385050439349067 2.97521077458313e-19 -0.0141325841428067 3.80947866228709e-21 0.00837720961007318)
(0.00595834562909139 -0.000319115510844021 -8.49515624912683e-25 -0.0140096574345981 -1.74402282495005e-26 0.0080528453336546)
(0.005860386119905 -0.000262935233109266 2.00172565680876e-25 -0.013853873673109 8.82783804919805e-28 0.00799411690445519)
(0.00594682450366747 -0.000238082421863559 1.93230010116237e-25 -0.0137550406755956 1.53950398930008e-28 0.00780959660877452)
(0.00587994981152412 -0.000153738061253329 4.39167670315501e-25 -0.0135394260850358 1.59344742092267e-26 0.00766074224560824)
(0.00574510593073943 -0.000113865521279564 -8.09944510479907e-27 -0.0133227938564783 -4.10672464543543e-27 0.00757884850965688)
(0.00577354356681927 -8.37662736784135e-05 8.0206333948477e-27 -0.0131927338931024 4.0667641311757e-27 0.00742020216545434)
(0.00580075702714057 -3.81842978117972e-05 8.07402414185699e-26 -0.0130663828710062 -3.77572379976771e-27 0.00726626990789141)
(0.00564530847291095 5.72230028904135e-06 -7.97524840346883e-26 -0.012855823519684 3.72953247067094e-27 0.00721184340205269)
(0.00563930913582574 4.01451172646135e-05 -6.57387371073699e-25 -0.0126090700258886 1.26369644150461e-26 0.00697096631619555)
(0.00563707479524323 7.31068610513839e-05 6.42198479905703e-25 -0.0123268202523062 -1.2344988198701e-26 0.00669076468811553)
(0.00579741073821629 0.000100294934055872 0 -0.0121861168232592 0 0.0063893643648466)
(0.00572782275720511 0.000134240653139365 0 -0.0120002290174055 0 0.00627360503976853)
(0.00571978884855739 0.000158601078667787 0 -0.0118586132581304 0 0.00614024107925261)
(0.00556886458161674 0.000192103750695558 0 -0.0116770117322308 0 0.0061094653607623)
(0.00550005192161405 0.000215024849368191 0 -0.0113888563644918 0 0.0058894030224963)
(0.00532307394684522 0.000236793139181483 0 -0.011042269503202 0 0.00571894031322049)
(0.00524190272814709 0.000249440746949427 0 -0.0107793980339899 0 0.00553877674031059)
(0.00536018534126685 0.000259089581502847 -6.26755618267979e-24 -0.0106438215261271 2.00419119581093e-26 0.00528519657903685)
(0.00539256544996048 0.000264964653288129 3.42234190019715e-19 -0.0104700734411328 -7.72509021787668e-22 0.00507744114876949)
(0.00536013823586207 0.000280554969279168 6.98025205670773e-19 -0.0102189630130318 -1.78328506296381e-21 0.00485877696417566)
(0.00532454761120768 0.000295775829631486 3.63609762448604e-19 -0.0101242883903148 -9.21531627992141e-22 0.00480100020732029)
(0.00528625295217769 0.000298949790299397 1.3218401605394e-23 -0.00995753241319835 -3.10610232099064e-26 0.00467081098318839)
(0.00508906896607079 0.00029659523204228 1.55148481660987e-25 -0.00966058148773736 2.97522941436373e-27 0.00457171190278082)
(0.00509914798196049 0.000299210509669311 -6.65391476506708e-24 -0.00957655530682722 1.10403610873634e-26 0.00447745572632513)
(0.00493315205689562 0.000294893380495237 -6.69629324101036e-24 -0.00934658102917325 1.94159158794823e-27 0.00441339554450236)
(0.00492565969046505 0.000295118925926261 3.62987948671163e-19 -0.00923385753646081 5.91887950828791e-23 0.00430818346428364)
(0.00487010888254265 0.000281121617503822 3.61882662487884e-19 -0.00905099889671794 1.10725581023922e-23 0.00418063758312913)
(0.00490715195266083 0.000286785403279929 -6.43231176623262e-24 -0.00900756197491147 -9.8677454365437e-28 0.00410121302074556)
(0.00471350603917857 0.000289066692311864 0 -0.00879009636342042 0 0.00407587234703205)
(0.00445484620793229 0.000277463561238707 -1.21323668189568e-23 -0.00849326497472415 -1.96994072899156e-26 0.00403758326271951)
(0.00420937640451167 0.000257871911167112 1.1753439606668e-23 -0.00824627844519655 1.9084140574072e-26 0.0040367547224097)
(0.00399759073536717 0.000241201193693656 1.07783221467138e-23 -0.00804835554775564 3.98030060146146e-26 0.00405010160685614)
(0.00371637803125271 0.00022224287386721 -1.04939841836109e-23 -0.00782069090531992 -3.87529812054174e-26 0.00410328591700987)
(0.00346701637284985 0.000187611900490575 0 -0.00764037300983494 0 0.00417260012566993)
(0.00313993375005038 0.000179629622548126 0 -0.00750983260966395 0 0.00436899421003158)
(0.00265211864047691 0.000146235235039148 -6.84575542344233e-24 -0.00727084690538453 -9.47170301681419e-26 0.00461713632492226)
(0.00213065839351875 0.000111934959783133 1.19904456073051e-23 -0.00708704871232734 2.16552122419693e-25 0.00495492883227579)
(0.00153295952126364 7.78816876628091e-05 -5.22894239023937e-24 -0.00698524367636615 -1.2160323019381e-25 0.00545447683153001)
(0.000637467363014765 0.000252484279232476 0 -0.00747061604661118 0 0.00683591760568473)
(-0.000118309320238442 0.000986186708744307 4.52263479754695e-22 -0.00836424664769981 5.17544744594654e-23 0.00848147832689798)
(-0.0005859775183597 0.00189316230748897 0 -0.00914025505178749 0 0.00972678870154705)
(-0.00114737790611625 0.00274454210985737 -2.32960035047213e-21 -0.00923454649010503 -6.39557014032842e-22 0.0103837560959414)
(-0.0017471899997162 0.00354625810897058 5.61722033613674e-21 -0.00912800677361429 2.03884419137888e-21 0.010878446255927)
(-0.00244396993139088 0.00418816833610316 1.10758504856116e-23 -0.00874661371174794 5.49470106320076e-24 0.0111940881083521)
(-0.00310748647375836 0.00466300339261696 -1.08255104402321e-23 -0.008232908949411 -5.37050800775141e-24 0.0113445836985752)
(-0.00359437246426312 0.00510732303355957 -1.36941507702195e-23 -0.0075304107620823 -8.78133327117418e-24 0.0111377249255512)
(-0.00392525627600183 0.00535451041738757 4.61417304830988e-21 -0.00704732710535674 3.06014902187394e-21 0.0109731577833873)
(-0.00414137622142633 0.00540869740571563 -4.57633257300147e-21 -0.0064532779675792 -3.18779778779296e-21 0.0105974895116537)
(-0.00434544404517671 0.00553327607106243 1.01441914868429e-20 -0.00606741144185581 7.45948423533607e-21 0.010416585380694)
(-0.00429612273370894 0.00535179829283897 0 -0.00559582683340361 0 0.0098933798874256)
(-0.00443121713384524 0.00529785798954298 0 -0.00547476696205012 0 0.00990668036384862)
(-0.00457211548414275 0.005116874589903 -5.46439875842143e-21 -0.00542535995542425 -4.19902818954321e-21 0.00999480430823104)
(-0.00479673505085121 0.00505192055302194 -5.66701303757783e-21 -0.00537286843714368 -4.42794059387388e-21 0.0101706680866812)
(-0.00500050635691992 0.00492104550355824 -5.79757564274881e-21 -0.00532475661426031 -4.61584978253143e-21 0.0103248205863101)
(-0.00512658862583877 0.00499912195396938 6.16924240714609e-21 -0.00523931333948832 4.93952966232864e-21 0.0103578909525043)
(-0.00549709229849291 0.00502004520150483 5.9685964039115e-21 -0.00538520311037457 4.96381449399232e-21 0.0108742639463412)
(-0.00610098346220402 0.00547332172146218 2.13637394781857e-20 -0.00595068860687292 1.77714435522988e-20 0.0120324341827442)
(-0.00633897324912268 0.00581866449929975 0 -0.00603164745893122 0 0.0123451661223848)
(-0.00630136656333211 0.00628496816771782 0 -0.00620795506504239 0 0.0124853038943411)
(-0.00605898398728219 0.00662662395142843 2.18000732714576e-20 -0.00697312962985894 1.55591657229206e-20 0.0130008914252002)
(-0.00488582081462575 0.00701377335307108 2.68607354285395e-20 -0.00693782220054799 1.66546143638287e-20 0.0118235033937297)
(-0.000880865178186847 0.00804068274476491 -3.20057489597057e-20 -0.00688717193648507 -1.51671408467936e-20 0.00775940474984025)
(0.00571856113864812 0.00706392767990955 5.64183481643012e-21 -0.00796884354330513 1.70685535020526e-21 0.00227219814344312)
(0.0104197172551417 0.00427940313004446 0 -0.00906340649211357 0 -0.00132370851761583)
(0.00855281661273574 0.00121478267066961 0 -0.00742608606790955 0 -0.00111397406369858)
(0.00835141137061409 0.000235816829678743 0 -0.00805671928001172 0 -0.000294457420700984)
(0.0230453493293818 0.0022079336485691 0 -0.0211939294967719 0 -0.00191683580415392)
(0.024583114886225 0.00142347417535267 -2.23663993948068e-21 -0.0236777430727121 8.41786995512315e-23 -0.00108028446387264)
(0.0179475811545967 -0.00218372936471292 0 -0.0174395898519556 0 -0.000471234958121118)
(0.00655610476961823 -0.00404833921245437 -6.10686628760524e-19 -0.00924418730546138 2.85988427361021e-19 0.00271947263310939)
(0.00146580264585436 -0.00497660567326251 -1.22554586873243e-18 -0.0057183401717567 5.89293859046928e-19 0.00424018058939921)
(0.000198880987125074 -0.00547259818741424 4.50176401916149e-21 -0.00403590033784584 -2.71728130664214e-21 0.00383274088773489)
(-0.000345980442177022 -0.00514043462882133 0 -0.00301192269542267 0 0.00335604915263489)