/*--------------------------------*- C++ -*----------------------------------*\
  =========                 |
  \\      /  F ield         | OpenFOAM: The Open Source CFD Toolbox
   \\    /   O peration     | Website:  https://openfoam.org
    \\  /    A nd           | Version:  7
     \\/     M anipulation  |
\*---------------------------------------------------------------------------*/
FoamFile
{
    version     2.0;
    format      ascii;
    class       volVectorField;
    location    "2000";
    object      gradomega;
}
// * * * * * * * * * * * * * * * * * * * * * * * * * * * * * * * * * * * * * //

dimensions      [0 -1 -1 0 0 0 0];

internalField   nonuniform List<vector> 
15600
(
(-12.2286025009241 -187115.608498344 1.0426635728872e-16)
(-4549.07951578672 -187707.075569916 1.33792202227809e-13)
(-22801.6306912247 -185432.219675404 0)
(-51744.3102632438 -189071.049015099 1.81731256675985e-12)
(-92045.1006649354 -198418.136802471 2.23472367682991e-16)
(-126686.296293598 -202605.366231362 1.62413265767062e-12)
(-143460.170307262 -193604.923818904 4.51841648887288e-12)
(-145492.497957955 -177920.996244774 -2.74655004446847e-12)
(-136628.76459937 -158427.265047478 6.98779561323602e-10)
(-120884.572196946 -137792.989930718 6.09254849318932e-10)
(-102210.199969931 -118284.362737276 -5.92045518589169e-16)
(-86075.7568521117 -102158.204977024 1.26722983186032e-15)
(-73461.5383315841 -89198.1615244755 -9.90567275181749e-16)
(-63577.1960378819 -78650.5501514914 1.85080450216732e-12)
(-55720.7885282892 -69912.5954216256 1.03737774247581e-12)
(-49424.9812519517 -62563.1339521972 1.37617256253282e-15)
(-44081.8551373763 -56175.9345704414 8.26985465984156e-13)
(-38788.9255643501 -50344.2082277186 -1.9017142186973e-12)
(-33371.1645683063 -44863.0444177406 1.025198066595e-12)
(-28167.8839521711 -40031.2430479118 9.02485520335435e-13)
(-23047.987122264 -35522.714353549 -5.01198282766352e-13)
(-18393.2436163841 -31855.7338939545 4.34130364967105e-13)
(-14254.2124818984 -28736.2030517253 -9.75037653572058e-17)
(-10803.2095545898 -26330.968819819 -5.29461972163395e-13)
(-7870.66398968633 -24527.9411623217 0)
(-5308.03778510889 -23274.4965837689 0)
(-2981.7097764296 -22543.1227699682 1.99354604839716e-11)
(-818.713007369294 -22245.4268461261 2.04670351536242e-11)
(9.92081151428784 -22269.1673237126 -6.5921922433352e-20)
(-3.35212334691277e-05 -22400.7721898461 -1.95825548247787e-27)
(1.56320998838333e-10 -22435.4526218146 0)
(1.63007089699651e-10 -22427.7315774702 2.30321884400397e-11)
(-1.49912439251863e-10 -22468.4462188938 2.35117396933416e-11)
(-2.81421436248568e-10 -22514.6939051477 0)
(2.2403121686402e-10 -22527.3930623478 0)
(6.00318951159953e-11 -22537.7881940036 0)
(-1.515840072754e-10 -22526.3788352406 0)
(2.05502905932618e-10 -22497.0348178398 4.17272331280604e-16)
(-1.40447696267052e-10 -22506.8518206833 -2.21770400898991e-11)
(1.08536911703811e-10 -22515.7235724669 -2.25350784084239e-11)
(-1.74130363548837e-10 -22480.8517009764 4.17272331276722e-16)
(-1.41343894768482e-10 -22541.2504075708 4.17272331279869e-16)
(8.59747149462466e-11 -22517.6699140275 -4.17272331272205e-16)
(-3.81125025023321e-11 -22562.6595213856 4.17272331276454e-16)
(6.55821359316146e-11 -22524.0444429404 -4.1727233127623e-16)
(1.67119064550223e-10 -22554.135746573 0)
(3.29973235064292e-11 -22572.2828654722 2.30846397748813e-11)
(1.43680484187079e-10 -22544.8722265765 2.33325793365159e-11)
(-1.70176755359351e-10 -22544.1050982391 4.17272331276728e-16)
(-2.36631662211796e-10 -22598.4430514356 -2.08636165638362e-16)
(1.18996582510772e-10 -22605.342953064 2.08636165639955e-16)
(1.12387104189325e-10 -22586.6415131729 -4.17272331270202e-16)
(3.09773447538648e-12 -22607.2680740318 2.22427777881063e-11)
(-2.73210890633102e-10 -22602.0386359193 2.23657635979674e-11)
(1.28927162906489e-10 -22601.9815454202 1.04318082819173e-16)
(2.10540010544701e-10 -22630.6343134495 0)
(-7.60022235474765e-11 -22641.3007321766 -3.89336517933252e-27)
(5.17744043374461e-11 -22652.2930661062 5.2159041409588e-17)
(-4.43168633750887e-12 -22682.6627060382 -7.82385621148406e-17)
(7.66607702657484e-11 -22682.7185885155 2.60795207046438e-17)
(-1.7044168293086e-11 -22696.9192650838 0)
(-1.34432513056316e-11 -22729.1757074864 -5.21590414098943e-17)
(3.92850338738137e-11 -22737.0697767382 5.21590414095884e-17)
(-2.70961601914897e-10 -22728.9266089458 -3.88493304166927e-27)
(-3.1021804362381e-10 -22748.8151863256 0)
(2.96922984611341e-10 -22781.8755929721 1.04318082819167e-16)
(-1.1338429927677e-10 -22797.1945018705 -1.04318082819539e-16)
(-4.46427725493139e-12 -22822.3056027428 0)
(2.56151470303733e-10 -22796.0062479811 0)
(-2.7061696409006e-12 -22852.2150735342 0)
(7.46145387175866e-11 -22900.0102863139 0)
(-7.26796559347276e-11 -22877.8112071596 0)
(-1.99495075661168e-11 -22835.5303946457 -2.22889937204596e-11)
(8.77473894821604e-11 -22898.8603605006 -4.42932528901061e-11)
(-6.53494086466978e-11 -22917.8968294614 -2.20112734302908e-11)
(-1.33673186883709e-10 -22873.4807100769 8.34544662556403e-16)
(-1.63086057219281e-10 -22939.9907165765 -4.17272331276458e-16)
(4.43168633743512e-11 -22940.3984678104 4.1727233127218e-16)
(2.23212529820364e-10 -22952.0015611609 -4.17272331279895e-16)
(9.1550976877657e-12 -22951.1302389147 -2.22855335114357e-11)
(-1.03797899893133e-10 -22970.1055446888 -2.19312083043443e-11)
(-2.6782446690222e-11 -22916.6224568716 4.17272331276676e-16)
(2.30066812139039e-10 -22979.4703171838 -4.17272331276739e-16)
(-2.52284770583441e-11 -23013.7829553462 8.34544662554808e-16)
(-1.21428205647493e-10 -22990.6299916191 -4.1727233127829e-16)
(1.1274084230424e-10 -22975.1111733912 8.34544662541448e-16)
(-2.57227685352429e-10 -22985.2701987548 -1.66908932512174e-15)
(1.05474134832099e-10 -22973.6214595163 8.34544662553418e-16)
(1.10118464616216e-10 -22924.0630321651 8.34544662553421e-16)
(-2.05897570019488e-10 -22944.0905418193 -1.66908932510671e-15)
(3.35213224850971e-05 -22865.4090369677 8.34544662553349e-16)
(-9.92085432011822 -22742.3554184598 1.01873129413842e-19)
(831.025858080618 -22583.2842022938 0)
(3005.85151241932 -22732.3793522889 -3.96748816531379e-14)
(5327.43731330007 -23363.7129611718 2.25422821589777e-13)
(7910.8312097655 -24659.6689722811 5.27334756900871e-17)
(10867.6502287374 -26496.3719025599 5.26313012173055e-13)
(14375.4498633187 -28993.4893177602 5.94748903618491e-13)
(18586.1567765718 -32206.7343707664 -6.78358201511522e-13)
(23351.5602908185 -36012.2619360485 7.82059355270943e-13)
(28568.752947343 -40624.315136492 -5.65962720310895e-13)
(33963.5829297981 -45688.5117256045 -6.45265389425968e-13)
(39428.3437476557 -51200.8695973154 0)
(44845.5999678266 -57177.1697917027 0)
(50340.2146195918 -63753.326893438 1.46008218723239e-12)
(56887.9822885664 -71418.1315108608 1.0228011322981e-12)
(64901.3080314304 -80336.5085274815 1.15842918242246e-12)
(75001.3012682173 -91124.7111479157 1.32738032814084e-12)
(88012.2770037816 -104529.252850349 1.54033617099523e-12)
(104273.222853033 -120746.977682822 -1.81564608117312e-12)
(123642.900130321 -141022.888333831 -2.13887425240843e-12)
(139416.198903768 -161725.3008146 3.89383325601741e-12)
(148084.749043471 -181131.039319401 -4.29660649908133e-12)
(146917.073912933 -198285.408048864 -4.51896226462108e-12)
(128458.141504338 -205414.419174512 4.45856793320284e-12)
(92843.0394098003 -200100.347527914 0)
(50383.5854054845 -184246.295018231 -1.1686718701816e-12)
(21786.8030943097 -177367.225677356 0)
(4423.7141152409 -182603.40723897 2.13383432827572e-13)
(12.2286025020723 -186650.913235217 0)
(-72.2950574872402 -221325.501629581 0)
(-5344.54942891789 -221592.79760274 -9.38401600886921e-14)
(-27506.207888469 -221019.796842601 1.04426082374695e-16)
(-63200.9249383671 -225967.715009231 -2.23826639484281e-10)
(-111932.270537935 -237398.20583226 -2.40057081837671e-10)
(-152774.328644821 -243045.107432358 2.73323294793886e-12)
(-172864.915766835 -234242.554541892 -2.40338217043863e-20)
(-173973.7797962 -215014.412852836 2.64757459580612e-12)
(-162266.00272442 -191257.453974981 -6.76096935750819e-10)
(-142716.716422907 -166198.220585405 -5.84794152102219e-10)
(-119910.783368078 -142190.218289141 3.75989918434371e-16)
(-100649.255037078 -122418.907818003 -2.82539800786758e-16)
(-85736.2134544662 -106607.314689944 2.69035641628656e-16)
(-74122.8120464004 -93834.0683965031 3.22595056007839e-13)
(-64964.0372208656 -83356.5973732536 -1.28309177850094e-12)
(-57624.064619735 -74574.8803407654 3.61248344062405e-16)
(-51379.607217333 -67013.1707448375 -8.00166268786353e-13)
(-45050.066168076 -60013.5457022071 7.12645695962428e-13)
(-38710.4141298246 -53584.0920647185 -5.15575003605833e-16)
(-32532.2240615576 -47778.7720767345 4.18460612084117e-16)
(-26597.6206235732 -42518.9911751442 4.80047663063855e-13)
(-21113.6937971985 -38017.9562883329 -4.16191218067212e-13)
(-16319.5038767228 -34281.1149332483 -1.08007409371755e-13)
(-12351.8401629503 -31381.1077912675 2.69842358389236e-16)
(-8991.42172383387 -29214.4568103523 -4.42392669183208e-14)
(-6072.06208759612 -27744.5964334194 4.19372697784818e-14)
(-3416.79913628819 -26905.9344367181 -1.94321827523686e-11)
(-938.006984938231 -26731.6885597097 -1.94299291820232e-11)
(-0.429948329472238 -26847.1970392049 8.3871399496377e-20)
(-16.6289492704608 -26883.9364572248 1.88953101668974e-27)
(-2.68300115093775 -26871.2804331078 0)
(-3.28352664522628 -26863.2278439926 -2.25356533529514e-11)
(-8.65450103483321 -26863.2812505356 -2.23746070358927e-11)
(-5.86639676401931 -26858.0119634151 -4.40668377533153e-16)
(-2.29834633154004 -26850.4219419578 2.19951192493643e-16)
(0.100936000636919 -26849.5425722755 2.1966427022169e-16)
(4.05578076845724 -26841.5755353448 -2.19664270221205e-16)
(1.94333077551138 -26830.2598842735 -3.77012388236686e-27)
(-1.859907049152 -26823.7972800789 2.16229604755702e-11)
(2.58753495830352 -26803.6938093069 2.15191926205924e-11)
(-2.54043361921301 -26803.9374228674 0)
(-3.66415287485847 -26825.4626241844 -1.09866224628654e-16)
(-2.13063751407858 -26827.5641699605 1.39101777251507e-19)
(-0.634393863829606 -26830.0003796692 1.09727122850517e-16)
(0.848287067631709 -26812.1419754854 1.09741087178815e-16)
(-4.80069345951655 -26821.2904392436 -2.19168754087168e-16)
(0.921906594957253 -26808.7035529287 -2.24181345199975e-11)
(2.80425469502144 -26793.7540888934 -2.2370066599681e-11)
(-5.33137476379193 -26799.5706766492 -1.09670934780608e-16)
(-6.0943984839375 -26822.60310126 0)
(1.17449046998871 -26829.9942160951 5.45008324178384e-17)
(-0.191588264192754 -26829.0072441289 -5.45008324187081e-17)
(-1.5323234589207 -26852.5064792758 -2.15363951350112e-11)
(0.526115946551526 -26849.3491241513 -2.15065204601313e-11)
(-2.84584517663198 -26841.8700399163 2.71844174595739e-17)
(-3.91305007064822 -26855.9862615847 -6.38672950824191e-20)
(-2.15548160083092 -26858.188117169 -3.5180936162664e-20)
(-4.11634848261843 -26879.4670507702 -2.70853692245727e-17)
(-3.02795155338524 -26902.2631871842 6.74219067827528e-18)
(-1.41881442570486 -26901.6271301259 -6.74219067819769e-18)
(-4.62341792066284 -26910.6076603919 6.7175359313089e-18)
(-3.99578362194783 -26933.2999423186 -6.71753593138616e-18)
(0.0247903158215243 -26944.9913038447 -2.68053307031516e-17)
(-1.16890453780377 -26949.6107261824 2.68053307069007e-17)
(-5.26948909137942 -26959.7770687881 0)
(-4.81471514877695 -26977.7353013011 0)
(-4.02359930720229 -26988.9732494313 0)
(0.118255166187623 -27005.3764846936 0)
(-2.97659403577287 -27003.768635184 0)
(-10.350494074787 -27031.1128990353 0)
(-2.54733021594109 -27056.4154133152 0)
(6.41704637007487 -27056.4049801447 -1.05614242787949e-16)
(-2.09481420556009 -27044.1287162691 2.13694181183768e-11)
(-8.19711723883668 -27066.8699663144 4.27282870994189e-11)
(2.52578578233488 -27084.5530718528 2.13862462056281e-11)
(-2.19878623328274 -27081.60275769 2.10070886320764e-16)
(-6.65966308662457 -27107.5266140697 -4.34785816510111e-19)
(-1.19532065958743 -27115.3647646229 -1.0452888185949e-16)
(-1.06802711705957 -27117.4877497647 -1.0438111590114e-16)
(-1.80171056087715 -27121.6465545736 2.12927917114448e-11)
(3.43421851019633 -27128.1254413504 2.1371981314824e-11)
(-0.931983255332503 -27116.0335966287 -1.04487696562508e-16)
(-9.66942418670297 -27151.8901804136 0)
(-1.1106121067174 -27174.8071041807 -2.0744612057322e-16)
(3.84862026899645 -27174.2263544629 2.07446120573669e-16)
(0.533407213509277 -27175.2047659648 2.08018294679074e-16)
(0.148256499331314 -27188.0613447866 -2.08018294683905e-16)
(6.09134438700587 -27192.6604088447 0)
(2.93892038757983 -27176.0506275782 0)
(5.83725220857415 -27183.517714642 -2.09978948021177e-16)
(20.1569202843439 -27160.4398259339 4.22589843914206e-16)
(12.9589735793472 -27091.9407382175 -2.12610897041414e-16)
(971.871199129779 -26887.1389664823 0)
(3448.46917356712 -26957.6023357225 -4.60263447107409e-14)
(6066.63670898539 -27692.0164762616 0)
(8958.25686878783 -29130.6277164699 -4.40885467822489e-14)
(12295.8533119613 -31269.9883354526 9.61529974997108e-14)
(16256.0713599108 -34186.6370009033 2.95080926573217e-16)
(21050.3517753939 -37945.5982415436 -3.08455349001338e-16)
(26539.2074970795 -42462.9985411189 -3.8314875372496e-16)
(32509.4749634472 -47793.5717130326 5.46215925503145e-13)
(38758.6067520329 -53683.2023058081 4.48368932858583e-13)
(45111.5375496111 -60110.2632999397 1.95896136541095e-13)
(51469.4068734254 -67164.7848171364 0)
(57745.6897119588 -74785.4999018643 0)
(65226.8689335224 -83742.1822540118 -9.86152503993966e-13)
(74519.3760676235 -94370.2725914632 -1.11687711778011e-12)
(86294.3776433896 -107362.751063462 -1.27970434249868e-12)
(101588.593761319 -123603.640832512 -1.08169733825855e-12)
(121280.228506772 -143885.356286089 1.74855142232657e-12)
(144593.149736424 -168447.892370368 2.62235753281442e-12)
(164724.855282304 -194131.586168172 0)
(176419.556455857 -218130.55131558 0)
(175954.428216793 -238369.198470446 7.3763382771767e-13)
(155095.339472049 -246393.215931452 7.37157067717519e-13)
(113529.844237593 -239872.99386232 -6.92260088934553e-13)
(63145.5672020428 -223938.206184476 1.12746815324361e-12)
(26701.3829980022 -214518.500374806 0)
(4839.67612830998 -216550.09514113 0)
(-205.034813372789 -220649.917535917 0)
(-67.8485875809837 -42848.002502106 0)
(-1031.87469713926 -42769.9313247156 -3.41162343049934e-14)
(-5531.80070090071 -44934.8497461118 0)
(-13025.7794810561 -47189.6218361331 2.1554083240002e-10)
(-23970.1543720433 -51302.9390785451 2.31628338622012e-10)
(-33097.8290433403 -52901.3600746212 -3.33839466240128e-13)
(-38917.1430650618 -52975.5436706585 0)
(-39268.417975938 -48725.8163418276 -5.00626318678505e-17)
(-36547.6026937615 -43160.8684843765 2.92736617500284e-13)
(-31822.7175893078 -37089.6474260052 -2.56069903494661e-13)
(-26366.0133119151 -31267.9066519974 1.52321350889884e-17)
(-21759.3810835321 -26453.8006712334 1.2426379345817e-16)
(-18272.8369918749 -22709.1871125388 0)
(-15617.5758512843 -19754.361034248 -3.10608968558939e-13)
(-13579.7866718923 -17417.7933350456 1.49298483641745e-13)
(-11989.3703307205 -15518.3547890495 1.34711559956006e-16)
(-10719.1426385735 -13984.5628384363 -1.29905048157637e-16)
(-9359.26742740709 -12463.1341635193 0)
(-8122.45754636171 -11226.7383138025 0)
(-6806.5629351227 -9977.30898490297 0)
(-5664.27551003276 -9028.41961472181 0)
(-4453.50626034418 -7984.86384745783 5.61487480952008e-14)
(-3441.03412014901 -7199.06071121939 1.0379566875951e-13)
(-2600.11791916464 -6581.56310865783 -1.08157866666331e-16)
(-1892.22678102497 -6132.04655111976 2.18312003637309e-14)
(-1276.29406097272 -5849.2573007026 -6.02198133932652e-14)
(-713.984752819412 -5724.53029927929 -2.95492789257008e-14)
(-198.224521298848 -5885.46375250945 -9.71084142549119e-17)
(0.424142850750871 -6007.43761122682 -2.9402333296607e-20)
(-1.89411963746289 -5905.49842686423 0)
(2.34600689984093 -5869.84243728377 0)
(0.905381478122435 -5875.49682766059 0)
(0.839628609762045 -5834.75313610079 0)
(1.58987654869621 -5786.2603483499 0)
(1.00012576282511 -5770.52033408029 0)
(0.94928109505444 -5757.70592753907 0)
(1.8521055557222 -5760.57514112415 0)
(1.72782589522646 -5777.43598397281 0)
(2.81127972075213 -5760.91001877874 -5.03651239946031e-17)
(1.95288037847937 -5733.22323619461 5.03651239945988e-17)
(-2.18502458998372 -5769.00936400377 -5.03505037052325e-17)
(-2.30034273698554 -5723.42282080631 5.03505037056102e-17)
(-0.374797473989464 -5745.52328893885 0)
(1.62803449795 -5697.88421184491 0)
(0.853016108156104 -5723.05070151152 -5.03382800700694e-17)
(0.52991101856341 -5692.59875058448 -3.33734465448757e-20)
(2.83553325756514 -5659.49824945471 5.03716535164329e-17)
(0.821191496611558 -5671.30574067379 0)
(-2.80762439432872 -5679.90885254403 0)
(-2.89717573495741 -5641.40185297861 0)
(-0.68664458391576 -5640.33495173361 0)
(-2.32199276784877 -5658.35272509205 0)
(-2.04184530427154 -5654.14376914576 -2.49622955060676e-17)
(1.07785772506711 -5658.04466128128 2.49622955061625e-17)
(-0.585931909543412 -5647.73355734128 1.24888930439137e-17)
(-1.53808095219219 -5624.0131034689 -2.42168310543601e-20)
(-2.341287925887 -5613.38704884659 -3.68631924542126e-20)
(-4.39629380543664 -5622.24545095058 -1.24278130204051e-17)
(-2.1728374610023 -5609.45712756537 0)
(-0.806426080465566 -5608.69201339304 0)
(-3.09692851690631 -5598.60333051217 0)
(-3.40209713741485 -5582.7647901762 0)
(-1.68388951964443 -5584.20752892156 -1.21828474352292e-17)
(-1.47614298705922 -5599.02462070422 2.32416280032206e-20)
(-2.70297246906284 -5585.79318620214 1.21596058072268e-17)
(-2.83497203765357 -5564.417066956 0)
(-2.71183788251321 -5556.69721866156 2.40594286868964e-17)
(-1.53041230599509 -5542.4328220748 -2.40594286868035e-17)
(-2.51967696533778 -5568.59269951407 2.39318927106325e-17)
(-5.05328868253259 -5529.69234496991 -1.59126394640522e-19)
(-2.56140977754459 -5497.27871569144 2.36114504173601e-17)
(1.03376751313876 -5521.31293103759 -4.73842167336113e-17)
(-0.954788058850931 -5557.34466464231 0)
(-3.88835088040522 -5505.7448564898 0)
(-1.63135725535273 -5497.73572669091 -4.70415632286614e-17)
(-2.2514152874967 -5544.62193671615 1.41792650309807e-19)
(-3.24354516685308 -5489.97818133008 4.68997705783252e-17)
(-1.00681495106379 -5494.62547699192 4.66320857001505e-17)
(-0.605076907574268 -5483.08021722066 -4.66320857010046e-17)
(-1.05579305854097 -5482.81964550338 4.65274852052942e-17)
(0.450073942782872 -5467.06274915933 2.83453601539743e-20)
(-2.34205001344057 -5515.66924683631 -4.655583056545e-17)
(-5.70967096269409 -5468.98406268697 -9.20974769747435e-17)
(-2.34525308064775 -5450.77975307947 2.9540498529645e-19)
(-0.192057520893586 -5476.96407871316 9.18020719897954e-17)
(-1.42403349184758 -5493.56668414779 0)
(-1.84790085441223 -5488.83230903811 9.13657521427143e-17)
(0.995422048187669 -5497.7002871283 -9.13657521419118e-17)
(0.833231880387827 -5534.31799076226 -9.15960869792534e-17)
(1.25542276524023 -5515.27158624822 9.15960869792598e-17)
(8.64896970562784 -5577.29056132176 0)
(11.3496596143365 -5645.47637331437 0)
(206.77634707314 -5603.66478497219 -2.47887367920483e-15)
(708.077216912527 -5512.12077690151 -2.91317518670102e-14)
(1247.28837948389 -5648.22044859101 -9.72486172483546e-17)
(1809.83474056768 -5838.23476009704 4.25386893840069e-14)
(2462.25872053688 -6221.79335816548 -4.52670203928979e-14)
(3226.51698343304 -6749.54606467136 0)
(4155.64189067024 -7446.8743483287 0)
(5239.61121290934 -8355.0200317721 -1.65420183042041e-16)
(6292.1324168015 -9236.93313408809 1.73236978304829e-16)
(7452.2353663897 -10299.4426576379 8.56987475338416e-14)
(8631.42025053663 -11488.5675026572 -1.89399709953495e-13)
(9881.27702781162 -12893.3950421114 1.01620651681867e-13)
(10979.0453109471 -14225.0331533466 0)
(12342.135207966 -15850.7120175009 1.55600004716459e-16)
(14258.3863104749 -18054.0372448098 -1.62141296400673e-16)
(16742.7288324795 -20851.8145290407 0)
(19980.1597583656 -24357.4677001531 -3.87528680309149e-13)
(24767.5497903196 -29443.9685323776 0)
(30009.6090374973 -35049.0401461873 -5.40109614631026e-13)
(34996.245288606 -41371.0960098451 4.24753536759453e-17)
(38063.7713344639 -47302.498379902 -4.38985816888671e-17)
(37149.1210494494 -50561.668752616 -7.11077037164161e-13)
(32682.1170265884 -52041.5367597607 -7.10721451268189e-13)
(24156.839148338 -51056.5971342192 9.52230049696538e-13)
(14724.1480279332 -51554.941222786 -1.45069773091823e-13)
(6193.34833547606 -48954.2604467854 0)
(736.864110157137 -42513.1497718985 -2.0189549165669e-14)
(-217.036704786636 -41712.3711451783 1.09121855449223e-17)
(-130.879409308346 -11592.9866801931 -5.87595279829741e-18)
(-322.732286938577 -12147.54340465 5.87457451026547e-18)
(-1593.76832165935 -12852.2391613081 -4.21296367224114e-14)
(-3821.610049799 -13758.0892958892 0)
(-7986.59641910573 -17147.7004231575 3.01232988363513e-13)
(-10969.4283618909 -17605.5183615126 3.21882973664479e-13)
(-12542.0495788252 -17114.3115267631 0)
(-12870.7144657908 -16007.5177998469 0)
(-12014.4176487182 -14223.132230766 -2.82138602875779e-13)
(-10423.6244652686 -12164.4843658318 2.46700379898526e-13)
(-8743.72155738614 -10363.5503546567 -1.18591314664496e-13)
(-7202.73312806042 -8754.0352662995 6.38259943512437e-17)
(-6044.38840972512 -7510.22161128131 0)
(-5128.4317248448 -6485.68117444641 7.9577365159359e-14)
(-4393.92909888909 -5638.34660236759 1.19784668631968e-13)
(-3860.23099412721 -4995.99000342661 -7.35142603838931e-17)
(-3446.45655712975 -4493.86842069837 5.95574962614632e-14)
(-3041.11571204844 -4043.61026060773 5.40770347129638e-14)
(-2652.73232549674 -3651.44181091904 -4.84377832108846e-14)
(-2246.1206006769 -3274.92206169351 4.29244524633066e-14)
(-1893.99318467515 -2995.67000379559 0)
(-1508.12471390897 -2683.72357482687 -5.39572124406636e-14)
(-1176.25421648953 -2447.66070574091 -7.1495456840621e-17)
(-897.3657822675 -2260.26690505646 2.7175067038402e-14)
(-654.297005275838 -2121.18168613045 2.01630130230646e-14)
(-433.376116929265 -2014.5775741019 1.93815712683825e-14)
(-237.772168654223 -1985.22310489005 9.53182652008306e-15)
(-63.5100191292439 -2037.28546631605 -1.60489883888149e-15)
(-1.32741666680136 -2080.95337630555 1.56477328000521e-20)
(-2.44327563821801 -2075.63781304057 5.82975461221246e-17)
(0.364061192239901 -2095.67643298761 -5.82975461221217e-17)
(0.302366970147019 -2106.71198036704 0)
(0.544034024041342 -2108.64735147853 0)
(0.729751201932426 -2114.54339561576 5.85332966116438e-17)
(0.629136184078628 -2121.82288519857 -5.85332966102869e-17)
(1.13867694860918 -2120.873813158 5.87480991753238e-17)
(2.03234847425397 -2121.92866119969 -5.87480991752028e-17)
(1.92092045147691 -2122.3776948264 0)
(2.69852258775253 -2120.85170444917 0)
(1.71811931844509 -2126.16703112053 0)
(-1.52920616350976 -2125.95917554737 0)
(-1.19377936424758 -2113.83931751946 -2.97171214915684e-17)
(0.555087642750149 -2109.02836673167 2.97171214910266e-17)
(1.69232194679753 -2103.15643825921 2.98536600578842e-17)
(1.40886293072067 -2109.28181094189 -5.97929138261813e-17)
(1.80712710995608 -2095.46257263437 2.99392537680661e-17)
(3.13163337242258 -2093.7080277826 0)
(0.675871245025921 -2094.53267713686 0)
(-2.238942913624 -2096.42144984098 0)
(-1.97425002682982 -2085.29822986617 0)
(-0.56669862148792 -2082.82435948221 1.49949836829645e-17)
(-1.59346533289483 -2082.45681240978 2.87807141549839e-12)
(-1.47455060324483 -2069.36557437894 2.87562238576404e-12)
(1.19592654875381 -2072.17680449109 1.49017869420752e-17)
(0.706976138573049 -2069.55655716847 1.49595911817212e-17)
(-0.328836444797182 -2056.31542704673 -1.49595911817202e-17)
(-1.96160104309028 -2053.42984786571 0)
(-3.68700278149313 -2047.59849658491 0)
(-1.60784003460096 -2038.22957349314 0)
(-0.278948586203012 -2037.71694426797 0)
(-1.90663392046224 -2030.68684041083 0)
(-2.4789785720623 -2020.41980524738 0)
(-1.65189563645046 -2016.00450055409 0)
(-1.32553967037477 -2017.14745830781 0)
(-1.66108055232975 -2012.48295304815 0)
(-1.7754392277937 -2003.38404674886 0)
(-1.72297830695771 -1997.84687944182 1.43403046445842e-17)
(-1.0924906312628 -1989.01916203863 -2.76568105777792e-12)
(-1.62164099120112 -1989.91234832616 -2.75072334162608e-12)
(-2.91959530342087 -1973.72301049117 1.42578578038652e-17)
(-1.66799035750858 -1958.17041482725 -2.82370025625019e-17)
(0.188252844610747 -1959.15329105678 2.82370025625e-17)
(-0.454495447427338 -1966.52430334896 -2.82208273252338e-17)
(-1.97944738098909 -1950.83399232812 2.82208273252352e-17)
(-1.48409132875507 -1939.40717720838 0)
(-1.35980234567598 -1944.74040186997 -2.79277912553715e-17)
(-1.4444553225095 -1926.85718261189 2.79277912552564e-17)
(-0.476055759458957 -1921.71561806398 0)
(0.178522736681279 -1918.5395431468 0)
(-0.122056562261059 -1911.6933613749 0)
(0.0396492093852532 -1904.89750962675 0)
(-1.04867388180957 -1912.54895836543 0)
(-2.87676620578959 -1886.0405426092 0)
(-1.95307777479372 -1872.83600252913 0)
(-0.583450625471977 -1874.39633810973 5.48487270686574e-17)
(-0.652238716631503 -1872.29991853619 -1.0961820223587e-16)
(-0.238196974493479 -1860.2814239272 1.09510007618745e-16)
(1.39588545663768 -1849.8673756063 -5.47405324487939e-17)
(1.13518179322275 -1853.18997659245 0)
(1.34483477876793 -1839.88490506145 0)
(6.57299675704045 -1843.59479044489 0)
(8.89077925474637 -1861.76973625077 5.70844660657251e-17)
(70.103507835274 -1871.75602453095 3.9333502444202e-15)
(239.54216048245 -1868.07321746642 9.50136128442421e-15)
(431.06675118752 -1935.67708921064 -1.3051726866389e-14)
(635.515278642697 -2028.22135682377 -6.4604517406234e-17)
(863.604978821979 -2163.28696752866 -7.58397561447992e-14)
(1122.56138438012 -2333.5398188438 7.71266107353472e-17)
(1433.67817680356 -2547.92597280169 -8.06052339802605e-17)
(1802.31412609969 -2853.11866849652 -4.1422111394803e-14)
(2115.48669120225 -3092.89909055338 4.58143256710086e-14)
(2490.7259391367 -3428.00591016141 7.94139017064062e-14)
(2871.69580936256 -3816.19806602147 1.33164410208452e-16)
(3250.54996859993 -4235.72134958769 -3.62123074015149e-14)
(3604.95194019245 -4662.12480763357 8.02475924166334e-17)
(3989.05941568286 -5120.33157953706 -1.71545350046629e-16)
(4585.0775699953 -5800.94832675299 8.23835927753168e-14)
(5311.17208805208 -6613.39301012099 -1.09697017689178e-16)
(6144.34349950203 -7504.37806396392 1.02798371542589e-13)
(7372.38959112726 -8799.42351587066 6.83661318442083e-17)
(8794.11228423189 -10310.9429271995 -7.21878863344353e-17)
(10178.227004388 -12070.1846023071 -2.11250084572448e-17)
(11058.3636883933 -13786.9395280837 2.18339039097273e-17)
(10367.2785829432 -14138.6277482493 0)
(9616.30813989828 -15348.4882660168 0)
(7484.70397092728 -15818.8919335825 -1.18637142218971e-13)
(4970.94432008256 -16901.360476127 1.39932851262814e-13)
(2455.36708895491 -17677.4721950771 0)
(233.480546417827 -12867.4225419635 1.94707854616491e-14)
(-220.663499983309 -10434.9482535006 0)
(-161.080836501248 -4416.23429815755 0)
(-175.356513658758 -4816.63793219586 -7.88853560211209e-15)
(-656.883116621064 -5247.066145116 8.96599960745676e-15)
(-1417.00490881358 -4845.87434095781 -1.6092661835179e-17)
(-3252.82351941823 -6828.94478912479 -1.15227753081604e-13)
(-4763.5441071939 -7655.06789440244 -1.1320657335433e-13)
(-5300.92068668629 -7270.82769693327 0)
(-5313.87548380229 -6630.2280459621 0)
(-4949.91863326175 -5861.86057707483 -9.86136128054239e-14)
(-4417.90532566467 -5149.9057355275 -8.77057310377667e-14)
(-3681.08168907383 -4357.5193536909 1.14287128058356e-13)
(-3043.0179436957 -3698.18649082883 0)
(-2553.77813618431 -3174.42459916861 5.89817488549709e-14)
(-2160.44285406573 -2735.56716771961 -2.35326240527764e-14)
(-1856.86935239875 -2386.78340482044 4.84859624616998e-14)
(-1656.20915248264 -2142.83486572729 -4.47357693379326e-14)
(-1488.01939162506 -1934.013106721 -1.64650448874754e-14)
(-1356.44989203146 -1794.30793670345 -5.2149593419346e-14)
(-1197.15276422964 -1636.33068579953 4.65960067272735e-14)
(-1029.93091324509 -1489.39560434271 -1.22481134133241e-14)
(-875.095402908879 -1370.94238043787 6.00867418727797e-17)
(-696.655869774914 -1227.86364450668 0)
(-549.972501431828 -1135.89923183388 -2.02852678062452e-14)
(-419.196754808283 -1052.87962064883 -2.6218092571499e-14)
(-302.235990745558 -987.10890471282 0)
(-198.070361561303 -944.813990575791 8.57602177816152e-15)
(-107.516254363256 -946.042863789053 -3.93645040162844e-17)
(-29.3185166062476 -986.484635831094 1.58788256737984e-15)
(-3.37006566872607 -1012.87806454975 -5.92754624807817e-21)
(-3.49429652598869 -1013.82379300266 3.92142922984032e-17)
(-1.00366230681663 -1023.9413168469 -7.83109416974333e-17)
(-0.509929184578938 -1030.87047118074 3.90966493990326e-17)
(-0.0149121073981105 -1034.35521224477 -3.90351308475445e-17)
(0.160918017290067 -1038.48247123365 3.90351308478858e-17)
(0.314292037185636 -1041.73763592302 -3.90908319411105e-17)
(0.939980882285711 -1042.63966166468 -1.10178568625183e-19)
(1.68410416177446 -1044.94295506896 3.92010105103531e-17)
(1.84394298613467 -1048.38094407915 0)
(2.39456842485109 -1047.95774003656 0)
(1.37151552410332 -1054.51966051919 4.00559820727599e-17)
(-0.859242272925784 -1052.83119728804 -4.00559820727575e-17)
(-0.452919166242715 -1044.35526913815 0)
(0.790219116758888 -1042.29085280888 1.99974016597924e-17)
(1.60207679536484 -1041.69696730582 -1.99974016599936e-17)
(1.68610885319806 -1044.68894549607 0)
(2.21676666268196 -1039.81114365584 2.03200293737335e-17)
(2.92493182431755 -1041.05903587872 -2.03200293737349e-17)
(0.506849502534106 -1044.6374165965 0)
(-1.81421615832292 -1043.32323211506 0)
(-1.41857440582122 -1036.63065037501 0)
(-0.373816017757039 -1035.15528883899 -1.01548917113807e-17)
(-0.858585868641403 -1033.95160365261 -2.78957917478146e-12)
(-0.917636890409054 -1024.32822902226 -2.76235987826251e-12)
(1.05757963555094 -1025.24050817561 -1.01028423333032e-17)
(1.12347275368246 -1027.12446337629 0)
(0.20289327436559 -1022.02291437933 0)
(-1.3915777805561 -1020.79643042474 0)
(-2.73764292393709 -1012.13330946118 0)
(-1.09581047896405 -1004.73564663926 0)
(0.0119524813583728 -1004.08362010209 0)
(-1.22238796359543 -1001.2231999935 0)
(-1.80825059791532 -994.613248820032 0)