/*--------------------------------*- C++ -*----------------------------------*\
  =========                 |
  \\      /  F ield         | OpenFOAM: The Open Source CFD Toolbox
   \\    /   O peration     | Website:  https://openfoam.org
    \\  /    A nd           | Version:  7
     \\/     M anipulation  |
\*---------------------------------------------------------------------------*/
FoamFile
{
    version     2.0;
    format      ascii;
    class       volVectorField;
    location    "2000";
    object      gradk;
}
// * * * * * * * * * * * * * * * * * * * * * * * * * * * * * * * * * * * * * //

dimensions      [0 1 -2 0 0 0 0];

internalField   nonuniform List<vector> 
15600
(
(0.00919815008926251 2.63600573733616 1.96466457176002e-22)
(0.0564133841830293 2.91680969543723 1.23492639034883e-18)
(0.193444284186274 1.70348521938211 0)
(0.266469838603654 0.956685769915983 -1.18134142358198e-22)
(0.42502651993435 0.886210023176988 2.63163312934681e-23)
(0.573356094008168 0.904308916787309 -7.24732158173947e-18)
(0.635006748558394 0.863559724676366 -1.05074228765341e-22)
(0.556884633178574 0.692706308304436 -6.03500048243094e-18)
(0.505329180605352 0.597656378657656 1.49390909070844e-15)
(0.445779754769236 0.523657188115331 1.30809820538783e-15)
(0.353526885800794 0.424172335443676 -8.47979698758859e-23)
(0.30538224678692 0.373056485098842 2.59138464003749e-22)
(0.285402173175505 0.355596064180047 -3.09157895180921e-22)
(0.263096254994873 0.335131923427218 -2.64378312545035e-22)
(0.249439976992761 0.322676606958148 2.76728272913372e-18)
(0.2415327745746 0.314163468222125 4.22876542395833e-22)
(0.245994011489578 0.318398001192678 2.71485966374152e-18)
(0.277777465548482 0.367367019943907 -3.10851064510477e-18)
(0.286748012289191 0.393171106303353 -2.26014264548058e-21)
(0.309739372934108 0.450225923611083 5.03455692479911e-21)
(0.310378989419804 0.492904238152527 -3.93955594033873e-18)
(0.310987832559081 0.556433710097106 4.31266368892347e-18)
(0.29095006994112 0.607900064220872 5.43941527402159e-22)
(0.263038592868854 0.666783096910858 -4.03749793590753e-21)
(0.220060007285472 0.71193808110842 0)
(0.169901689553561 0.771717325553197 0)
(0.103162603316427 0.801056373677589 3.97934072676304e-16)
(0.0324963403353443 0.848152239463075 4.24636876743168e-16)
(0.00369529069156136 0.923850449747167 -1.49183027958402e-24)
(0.00435482383150133 1.04968719871559 -5.05160833422591e-32)
(0.00317016872857164 1.13993193619646 0)
(0.00386317964324771 1.23844943622962 7.06924766045065e-16)
(0.00493452376636992 1.3147812344 7.54899496440226e-16)
(0.00489717073540477 1.402818379917 0)
(0.0028066079218448 1.47436902564183 0)
(0.00100211408465269 1.52690812156553 0)
(0.00102887332695671 1.57379536472868 0)
(0.00190422898486768 1.62926163304165 4.64592823906518e-21)
(0.00234667019390267 1.67547439064165 -9.20697007527548e-16)
(0.000837511594473995 1.70281713791719 -9.39887114730621e-16)
(0.00154510273380792 1.72821513495989 4.86142758843164e-21)
(0.000469779216938563 1.7504736582626 4.99779095545305e-21)
(-0.000767531524374885 1.7548652564911 -4.99779095536126e-21)
(0.000398954768930882 1.76402061664583 4.97284638367344e-21)
(-0.000229795329821843 1.78337448717899 -4.97284638360824e-21)
(0.00174145464851904 1.7981547394913 0)
(0.00395730995527406 1.82642853288842 1.04403253149703e-15)
(-0.00167810586307628 1.8694139546555 1.07150404314818e-15)
(-0.00464225285526112 1.81577787406037 5.07231537913982e-21)
(0.000584312228047954 1.79446000163458 -2.45761298506518e-21)
(0.00245885910158749 1.78433445729059 2.56059100041259e-21)
(-0.00301624776913036 1.7970358532288 -5.01911505292378e-21)
(-0.00485544420539515 1.73902163974533 9.57000435948468e-16)
(-0.000531109940859488 1.71649294953253 9.45962606131131e-16)
(0.000856048871196548 1.70437704104794 1.13812409893158e-21)
(0.00236669242006376 1.69824156849418 0)
(-0.00123603725710798 1.70411305610693 -1.63966724173512e-31)
(-0.00129635892910703 1.65460365874045 5.74902204447893e-22)
(0.000925359914733053 1.64856062418892 -8.66267468794371e-22)
(-0.00105107629205317 1.63061058569238 2.91365264339722e-22)
(0.00145643646557917 1.61247206362321 0)
(-0.000584144855790383 1.61288172659284 -5.81218052903888e-22)
(-0.00655009720571952 1.56168047345521 5.81218052900479e-22)
(-0.00132673037224279 1.49329938715055 -1.43684604172005e-31)
(0.00615168635831759 1.50727588883243 0)
(0.00326967805204164 1.52637943190702 1.18856893244346e-21)
(8.60102193104279e-05 1.51022244798628 -1.18856893244771e-21)
(-0.00949436382786206 1.49548817494866 0)
(-0.0069002569825529 1.36493589918429 0)
(0.00712903686484911 1.3629009458442 0)
(0.00367308282918621 1.38180589642541 0)
(-0.00960090471762645 1.3613452152441 0)
(-0.00445038511885355 1.25043551173485 -6.89632337752153e-16)
(0.00787567419735236 1.2757148012706 -1.40504042094098e-15)
(-0.00600004826898684 1.29932274916209 -7.14533787264503e-16)
(-0.0033630987076323 1.1865867557006 6.88755433819109e-21)
(0.00631755641300121 1.22134017722335 -3.32997311641723e-21)
(-0.00305808019737457 1.21611994226273 3.55056824911177e-21)
(-0.000385826603450036 1.15869447070557 -3.55056824917741e-21)
(0.000639304481288216 1.17926581897491 -6.50890974771668e-16)
(-0.00854219259022022 1.13686499744796 -6.24864678391133e-16)
(0.000910640277303775 1.06826193328591 2.98960384836766e-21)
(0.00580904183768477 1.1207599654856 -3.44437911593151e-21)
(-0.00458934343570601 1.08001551773437 6.57816022244454e-21)
(-0.00473939865224054 1.02134810623192 -3.13378110651418e-21)
(-0.000870661174335454 0.988580769128741 5.50820591748833e-21)
(0.00309832349853764 0.97234508609453 -1.14357890837204e-20)
(-0.00255068223860647 0.981869542363015 5.92758316605099e-21)
(-0.00235203334248271 0.915589989605159 5.26397028912474e-21)
(-0.000875886502939809 0.923338001941539 -1.04093839227659e-20)
(-0.00352234243061978 0.867346424991137 5.14541363364152e-21)
(0.00500170206974863 0.861001768559299 2.06366477605869e-37)
(-0.0267248803151257 0.958658496359096 0)
(-0.132222024976682 1.08445254647729 1.84298039853189e-18)
(-0.259527944709447 1.21175146555555 1.54576107991661e-20)
(-0.389190870572683 1.28082685644312 2.79248628335348e-22)
(-0.521434594049021 1.33663254105573 -1.75795199216288e-20)
(-0.648142056509189 1.36951964292437 9.156154808921e-21)
(-0.768511771167109 1.38560265535145 -1.00979571280378e-30)
(-0.855340434445455 1.36843460499125 1.05879799248946e-30)
(-0.943528727243471 1.38760626064746 -1.13536071092193e-17)
(-0.993126385040398 1.36658108905982 -1.14076882277044e-17)
(-1.00514099856704 1.32508854036286 0)
(-0.960477783122004 1.24559675070409 0)
(-0.966875492536025 1.25617334646746 1.30360122133334e-30)
(-1.00975090313004 1.30607688650375 1.11988646538347e-17)
(-1.07523346291208 1.36871111172656 1.17956962253559e-17)
(-1.12929718929128 1.40553076889105 1.21977767363134e-17)
(-1.17051691871624 1.42821613028007 1.2501097874936e-17)
(-1.28676550427821 1.54209668788882 -1.36353130239416e-17)
(-1.55667701109123 1.82704967563254 -1.6284789619535e-17)
(-1.68700387062865 1.99310695857552 1.80774694786709e-30)
(-1.74655780579882 2.1673003020114 1.24993994699626e-22)
(-1.82060075133425 2.47188383562621 -2.80039303139834e-22)
(-1.61775016114497 2.55031184490506 1.5227511887517e-22)
(-1.13826786922301 2.37078268491651 0)
(-0.596458612352482 2.10258298669552 -7.40618801428641e-18)
(-0.247629266912192 2.0057582939861 0)
(-0.0324600090171157 1.63896743354835 1.08171046048595e-31)
(0.0127287035686625 1.84633446183786 0)
(0.0438511606883093 3.60569263917171 0)
(0.0685012323281609 4.03216125255766 1.70784714713869e-18)
(0.327159367176357 3.21073791184349 2.00729544997072e-21)
(0.501925437836814 1.91288316238585 -7.09318876402661e-15)
(0.695015119443837 1.47677633831009 -5.8129185297543e-15)
(0.81116133928763 1.28775482650998 6.98777169359445e-18)
(0.803049039304351 1.09775587390323 2.14397806013281e-23)
(0.781484230360079 0.983836818886445 5.81755753177984e-18)
(0.713077912796286 0.855586027228046 -1.44570645165544e-15)
(0.641146058930615 0.762813025604186 -1.2553266712749e-15)
(0.576755196367652 0.699345120810814 3.54280640553227e-21)
(0.530770915729626 0.656179033980486 -2.83894533457853e-21)
(0.48845420923944 0.615193160726737 2.70325624039588e-21)
(0.463532679400859 0.59227848051516 7.89081199534281e-18)
(0.454453390500994 0.586212973278033 -1.0370062923701e-17)
(0.458011505109111 0.594424211508775 4.68785504354044e-21)
(0.450628612352545 0.585498149042175 -2.62380074432374e-18)
(0.445593849235097 0.588762786913178 3.01369713668676e-18)
(0.431062627481131 0.591768053068581 -1.03655065758515e-20)
(0.402115269803896 0.583787308308449 1.20897961510138e-20)
(0.379419660852066 0.597558377606209 3.78226047996342e-18)
(0.342105280142926 0.605934294390164 -4.15320694954441e-18)
(0.302710987912323 0.623828595776986 -9.08730318584031e-18)
(0.259135480770062 0.642565253069988 1.36646482215895e-20)
(0.215202941237806 0.677853292953117 -4.83629435914259e-18)
(0.158430787145085 0.695922382595336 5.01207360572517e-18)
(0.100048836484489 0.735182337057182 -3.88206082090232e-16)
(0.0388215759243172 0.788570334260944 -4.02963420491273e-16)
(0.0160459153198965 0.891658803773398 4.32070290157683e-24)
(0.0169815942037237 0.975224002780447 4.87432345630932e-32)
(0.0154912076108189 1.06148257248432 0)
(0.0134043037342397 1.12857228323476 -6.92312342681822e-16)
(0.0112444821632538 1.18641099325084 -7.18181976841902e-16)
(0.0107863592812478 1.2349322702269 -5.66113201715612e-20)
(0.00941148165654711 1.27965177450593 2.90098632807119e-20)
(0.00884321396100078 1.33117919064745 3.13934321303098e-20)
(0.00912348362532642 1.38768707053606 -3.13934321302405e-20)
(0.0081505191277219 1.42845367501208 -1.51273900162238e-31)
(0.00487978282891728 1.46954548367247 8.98108379384015e-16)
(0.00437459018424019 1.49237344911522 8.97169854319655e-16)
(0.00313811161482014 1.51922135852403 0)
(0.00215393275759537 1.5209888481396 -1.77741585982373e-20)
(0.00214352895957049 1.5525946025812 -1.39943414070263e-22)
(0.00242612090073917 1.56845265973525 1.7914102012166e-20)
(0.00363978851069825 1.59174160147415 1.83101237541006e-20)
(0.00249267363144057 1.6192459517863 -3.67829853413723e-20)
(0.00297607294653983 1.63373039953766 -1.01419839895462e-15)
(0.000653449585689395 1.62548693632608 -1.02705931122228e-15)
(-0.0026381450286825 1.65686916125564 -1.87098202587655e-20)
(-0.00371555887451943 1.66015492828594 0)
(-0.00230135388771923 1.61766704733532 9.07238109460412e-21)
(-0.00139630252067541 1.59282443674781 -9.07238109451921e-21)
(-0.00297420012083228 1.62538594153229 -9.26729081215465e-16)
(-0.00288614912797419 1.60771299936167 -9.09448694800326e-16)
(-0.00270082342956012 1.5963508679109 4.37366847488577e-21)
(-0.00248290795545204 1.57498349305454 -4.05250666846371e-23)
(-0.00306464888410656 1.55033634857182 -5.00200177489807e-23)
(-0.00418269991225291 1.5500641056669 -4.28312339029404e-21)
(-0.00334646491340383 1.50932250003614 1.04005881598259e-21)
(-0.00250234388192087 1.50069662216002 -1.04005881597062e-21)
(-0.00327422962985064 1.49366563419317 1.01648806435866e-21)
(-0.0044440283088211 1.44849499126956 -1.01648806437035e-21)
(-0.0051068113623179 1.44590017705795 -3.91006713343791e-21)
(-0.00404952965924012 1.45248868948288 3.91006713357662e-21)
(-0.00309349885256187 1.40699576032298 0)
(-0.00309154732507043 1.34972091067161 0)
(-0.0031401847068566 1.33597455585002 0)
(-0.0045968923441641 1.31222007602179 0)
(-0.00607390971628498 1.38010883457068 0)
(-0.00573848402099556 1.31712437083946 0)
(-0.00391872697440146 1.24520946583636 0)
(-0.00309339021296691 1.22266244922366 -1.32379773187795e-20)
(-0.00396115789037718 1.29421475328565 6.60931586502416e-16)
(-0.00329303982404235 1.22804668406762 1.3553198470773e-15)
(-0.00260817083143838 1.17605961765589 6.94363951945951e-16)
(-0.00432144420264411 1.24500779533662 2.49060646248897e-20)
(-0.0036113775659302 1.15948203429012 -2.35774050925021e-22)
(-0.00303571193168832 1.13809648836675 -1.20761923679441e-20)
(-0.0032839622064228 1.15561197680666 -1.1663603225968e-20)
(-0.00279191256702124 1.10181904448357 6.21724233677432e-16)
(-0.00219034523067004 1.11310135355932 6.09279224578874e-16)
(-0.00262406373332777 1.16179293279559 -1.13383292598439e-20)
(-0.00482195586356095 1.06211721516555 0)
(-0.00507184714928455 1.04561982939581 -2.10421641486404e-20)
(-0.00420549976500518 1.05241133918271 2.1042164148686e-20)
(-0.00402371902707757 1.040230411527 1.99676510490149e-20)
(-0.00386850803585511 1.00766271900668 -1.99676510494786e-20)
(-0.00296548706900348 0.955208210359072 0)
(-0.00339662405442741 0.991247065507209 0)
(-0.00388191228993232 0.937237294583815 -1.81249366568917e-20)
(-0.00259767192600735 0.946923427521627 3.59106877139443e-20)
(0.0040137109889725 0.932118978368771 -1.77857511531197e-20)
(-0.0188253997652575 0.913664668942538 0)
(-0.105684555107779 0.984204134289901 1.6776007289814e-18)
(-0.221074315444265 1.08968167086638 0)
(-0.352429005441541 1.19036757005073 -8.58764055196878e-18)
(-0.490481218845222 1.27958982031599 1.86743061182061e-17)
(-0.635249814284108 1.35883224008303 3.04180350524279e-20)
(-0.78935881376093 1.44134801496513 -3.17967200624996e-20)
(-0.958573307534233 1.54885924247677 -3.34924586268417e-20)
(-1.10576694990211 1.63501988035552 1.09845009160883e-17)
(-1.23507810349346 1.71953744760994 -1.43044500947248e-17)
(-1.41679961247959 1.89373418921848 2.67911637533315e-17)
(-1.51431182189153 1.98086794322757 0)
(-1.62871076351909 2.11957120494579 0)
(-1.67139289570853 2.15875623489893 -1.07975911167156e-17)
(-1.75110247035252 2.23411023000162 -1.13725926472567e-17)
(-1.83749523938246 2.305175635604 -1.17596649033911e-17)
(-1.97070720528225 2.42429844095102 2.12024363714274e-17)
(-2.04342010160118 2.46433330491765 1.31301644563827e-17)
(-2.19233651547673 2.59513007463458 5.45204295735627e-17)
(-2.32357806034994 2.76947586926826 0)
(-2.4185930423116 3.01795396091337 0)
(-2.3301777867299 3.16677587675728 4.6751213003882e-17)
(-2.31351695995627 3.65824023804628 4.90165946231426e-17)
(-2.01037345964929 4.20404020974989 -4.87024115061494e-17)
(-1.19791804780921 4.18265628144955 7.14506897624304e-18)
(-0.539970547323808 4.06036646007594 0)
(-0.0971992465791382 3.28476540109182 0)
(0.0363427661620242 3.09436791602602 0)
(0.0565024957042431 3.59283543286788 0)
(0.0569896214902975 3.74236841507309 -2.79787665901521e-18)
(0.307036150943925 3.48165814910848 0)
(0.516536588543269 2.17087329363077 6.83189317083709e-15)
(0.588601478515586 1.30430856966583 5.59145094729169e-15)
(0.710153519973103 1.15842602376458 -2.59644043032482e-17)
(0.658595612790615 0.921943167213056 0)
(0.633909523926217 0.808293595825837 -2.05428955471646e-21)
(0.591038797653074 0.717859452322673 1.86022439704876e-17)
(0.566896154164257 0.679302663914072 -1.69337242357804e-17)
(0.526588439976874 0.640289849228693 2.69539830105106e-22)
(0.501395476262523 0.621047078223086 5.70112911425577e-21)
(0.47511836724299 0.599269657651924 0)
(0.46016971905251 0.588458341229339 -7.60282717566849e-18)
(0.452595634048202 0.583122442931121 -4.99665822920249e-18)
(0.451522909830548 0.586093066399237 1.00703353393023e-20)
(0.432587219176474 0.562423417382968 -9.71102552477931e-21)
(0.415771613425721 0.550299219545675 0)
(0.378096366082108 0.520348078100014 0)
(0.345465150340468 0.501542446177907 0)
(0.301674583911263 0.474599614800299 0)
(0.255050436568603 0.449468594766605 1.20324445511811e-17)
(0.216197709496745 0.441297667264927 8.73207420835885e-18)
(0.177665030385306 0.43385931675199 -2.22262073787894e-20)
(0.139774079828465 0.432151011192481 -1.51163998917251e-18)
(0.101262388837843 0.432358812613498 -1.11424159062715e-17)
(0.0670922100189069 0.450792847060808 -5.71808331520541e-18)
(0.0348536050616794 0.493616035589903 -2.39200675749918e-20)
(0.0223604242251219 0.548902811196675 -6.44965166616081e-24)
(0.0214044620540963 0.575497748561674 0)
(0.0185071398054914 0.601542667316008 0)
(0.0163669631796214 0.61774382031457 0)
(0.015654983098179 0.648396071742285 0)
(0.014286693375008 0.67472756672541 0)
(0.0124786843941463 0.692902452217598 0)
(0.0118556177366149 0.716595722934462 0)
(0.0107608780362615 0.736787631690889 0)
(0.0100940902422194 0.749151563269202 0)
(0.00882580797434233 0.766828199024906 -2.32820635471237e-20)
(0.00582256922755094 0.796844096667409 2.32820635471217e-20)
(0.00442708622525602 0.793879904484416 -2.39275800893122e-20)
(0.00384557493381145 0.819204867236254 2.39275800894917e-20)
(0.00402283076026935 0.822453026053161 0)
(0.00436905492240148 0.849304342502528 0)
(0.00486841663203877 0.845977095779854 -2.50048969595515e-20)
(0.00604319659724203 0.870820826131527 -3.80596537042305e-22)
(0.00463257951102969 0.893020627516545 2.53854934965037e-20)
(0.000604586845537931 0.89881936099993 0)
(-0.00115362388722172 0.899334883977541 0)
(-0.00330055584169815 0.912997496849188 0)
(-0.0043054507149003 0.902330447321316 0)
(-0.00228072843844839 0.892479496944237 0)
(-0.00339288067959488 0.897761314767668 -1.24031654347835e-20)
(-0.00343895702378228 0.888200627004513 1.24031654348306e-20)
(-0.00238801621148565 0.890198082752797 6.10983798432504e-21)
(-0.00220070213560614 0.895774038149295 -3.46496923604607e-23)
(-0.00374060726302092 0.896445027287892 -5.88952447530035e-23)
(-0.00542187214081893 0.887888911366954 -6.01629304721155e-21)
(-0.00400884236944273 0.881022450459092 0)
(-0.00261191720337287 0.879684933351963 0)
(-0.00375334190773428 0.881503640260745 0)
(-0.005368548818149 0.875248721589463 0)
(-0.0061928070477868 0.870939990603293 -5.58555640402781e-21)
(-0.00524152545729846 0.862653051517551 8.25269543099217e-23)
(-0.00410874697395372 0.85452150470798 5.50302944971827e-21)
(-0.00382158335432055 0.847915803822212 0)
(-0.00366022430025739 0.844426721675643 1.06410761554057e-20)
(-0.00511712884659845 0.840634821071319 -1.06410761553646e-20)
(-0.00642319706026773 0.839667151313729 1.02776750970707e-20)
(-0.00631707534630362 0.837816559045835 -1.98922620036431e-22)
(-0.00579811578016143 0.83277976461128 9.71359096836868e-21)
(-0.00478611824318195 0.816933728916361 -1.97923434455153e-20)
(-0.00391298841357758 0.813679494472564 0)
(-0.00390483293488252 0.816773524112765 0)
(-0.00437159632932087 0.807141454988199 -1.87232353862311e-20)
(-0.00503488283107818 0.79646275723756 3.17093600892518e-22)
(-0.00434967597790237 0.80083204631797 1.84061417853291e-20)
(-0.00345945596177234 0.791435364890084 1.79143278046271e-20)
(-0.00402265463469491 0.795053730417591 -1.79143278049552e-20)
(-0.00362499384753334 0.784692862878769 1.74326839459748e-20)
(-0.00259099575904317 0.786838084587295 -1.63179204501141e-22)
(-0.00420306205853483 0.776816653197295 -1.72695047414744e-20)
(-0.00576856383207218 0.773342352935038 -3.32829966355855e-20)
(-0.005577137521144 0.770134691741424 7.02488887462131e-22)
(-0.0053219442881761 0.762369353803546 3.25805077482479e-20)
(-0.0053729049077364 0.75309409761035 0)
(-0.00542285484676442 0.74738456639697 3.055034300197e-20)
(-0.0042320494679835 0.740000611575452 -3.05503430017017e-20)
(-0.00416063781543391 0.734904458871171 -2.94932111791107e-20)
(-0.00534439366676514 0.729119174874811 2.94932111791128e-20)
(-0.00415021318984994 0.716877672814957 0)
(0.00168011369110636 0.712638130763289 0)
(-0.0107722168395047 0.682866429360284 -1.0397705347227e-18)
(-0.0627376930525597 0.690824758003218 -7.82578510388636e-18)
(-0.132369435784765 0.732083045605456 -3.39003799594782e-20)
(-0.225592331794578 0.814706543179654 8.28575674734605e-18)
(-0.326988922402003 0.887033839150214 6.43834838553354e-18)
(-0.436682542168291 0.960271315576502 0)
(-0.555612366197684 1.03752238523772 0)
(-0.693523123078666 1.14222181967415 -5.49482787306152e-20)
(-0.836171038723453 1.25583443514065 5.75448146368212e-20)
(-0.959710981887896 1.35762416183705 -1.13702994415736e-17)
(-1.10575804600857 1.49455084626126 -2.58695842008509e-17)
(-1.19130994846805 1.57384667769227 3.96217673712398e-17)
(-1.3164351999221 1.72872947501171 0)
(-1.39317075196064 1.80875592322612 3.69164808139259e-20)
(-1.48614254004584 1.90375809533889 -3.84684182280579e-20)
(-1.58578388243561 1.99244250701975 0)
(-1.69298082198703 2.07858462792945 -3.20557838240294e-17)
(-1.74212130844242 2.09543307115291 0)
(-1.73998957611192 2.0635674440088 -3.74075913309719e-17)
(-1.82070807109483 2.18258641866637 6.24774616565321e-21)
(-1.88171646964735 2.36309991345622 -6.45709032858642e-21)
(-1.90747499652204 2.64170631966658 -4.50680443025385e-17)
(-2.004038477421 3.26396965832317 -4.72541566567188e-17)
(-1.75367513208823 3.73150259385793 1.21934259907347e-16)
(-1.05520944083146 3.69437376090712 -3.41215369932907e-17)
(-0.502251217361692 3.6590355354724 0)
(-0.13916720416577 3.96124261800858 -3.66774180465688e-18)
(0.0282937983957698 3.78208843805604 1.37473991676836e-21)
(0.0414721234580662 2.95293260375944 -2.32923745538055e-21)
(0.0332090197564453 2.8084186160697 2.3286910997139e-21)
(0.208472210056716 2.94071524207743 -1.84870969034818e-17)
(0.478185388668953 2.26308876542591 0)
(0.42928705282795 1.03817672523379 2.5716104342136e-17)
(0.512337165984586 0.851600429362238 2.50344866671481e-17)
(0.575110300908023 0.821788907105398 0)
(0.559350323054702 0.727805252301802 0)
(0.524960304600231 0.644643712813656 -1.79319906547372e-17)
(0.47838383923057 0.57901970773318 1.63195271486655e-17)
(0.424976052703466 0.522976277100239 -1.91657298125584e-17)
(0.393266123731119 0.490909207496808 7.8685230079401e-21)
(0.36515920574465 0.463046816688047 0)
(0.351630519819618 0.449904763147425 1.60842136163619e-17)
(0.345780447203152 0.444314932590618 1.19684351492827e-17)
(0.334576909587513 0.434896965976028 -1.38872052978185e-20)
(0.314482244833069 0.410237515315425 1.52305263105974e-17)
(0.281193355440304 0.372966131923154 1.50596740042567e-17)
(0.247900465114914 0.342523414477128 -1.46042916009149e-17)
(0.217003007096713 0.316179869311063 1.42958784220165e-17)
(0.179930662567941 0.284258355798922 0)
(0.148901905952974 0.260231656449783 -1.15598741122133e-17)
(0.122491479020653 0.244164825237646 -2.45306204779141e-20)
(0.0997437571485264 0.235481587275551 1.34758844281142e-17)
(0.0799253644448266 0.234704103627473 5.9555714525978e-18)
(0.0624941594681365 0.246330742067149 6.15192265575291e-18)
(0.0463374727972579 0.265936165550719 3.11629887599001e-18)
(0.0308201357762501 0.294934478894222 -9.62382086703533e-19)
(0.024488095960217 0.312905611903618 7.59025203568744e-24)
(0.0224177962244722 0.320089099151105 3.58060124469631e-20)
(0.0198582830172191 0.327339933620491 -3.58060124469613e-20)
(0.0182843766719096 0.340442168707487 0)
(0.0171618123702167 0.354638205926667 0)
(0.0153951783184329 0.363762267956226 4.43965506060381e-20)
(0.0137595511580216 0.372614901267225 -4.43965506050089e-20)
(0.0134152393900187 0.381780118871226 4.76984916184191e-20)
(0.0125344434706914 0.39320147893961 -4.76984916183209e-20)
(0.0112807331159481 0.404420260158771 0)
(0.00981131934336571 0.410364402783439 0)
(0.00718994304299246 0.419676102037948 0)
(0.00547180618157713 0.42940577195841 0)
(0.00514577964904305 0.438777749277147 -2.69740558357497e-20)
(0.00529644630559804 0.45117592110885 2.6974055835258e-20)
(0.00487438110063211 0.45666984732647 2.75919717691484e-20)
(0.0059029705454307 0.459120003244797 -5.55425711515967e-20)
(0.00739390400356857 0.471407836661462 2.79505993822338e-20)
(0.00589121727988205 0.478982500721899 0)
(0.00131035156553924 0.49014519809681 0)
(-0.00118855965900272 0.488775019176166 0)
(-0.00341998684962075 0.490338414698975 0)
(-0.00442054681471867 0.488954753562798 1.41443889139646e-20)
(-0.00184877683565574 0.490716886833998 3.3095328561904e-15)
(-0.00341919840719061 0.496897923463681 3.31567643078598e-15)
(-0.00367345063788338 0.491775779385403 1.39843642811764e-20)
(-0.00189993551422946 0.492776455479974 1.3815062218965e-20)
(-0.00182596286415706 0.496951652061807 -1.38150622189641e-20)
(-0.00388612303384908 0.497520854037856 0)
(-0.00578809332907155 0.498045865241557 0)
(-0.0041984091104757 0.496838332382044 0)
(-0.00244569170570865 0.497595700153789 0)
(-0.00373044485609178 0.49947756263858 0)
(-0.00553914732649992 0.498054016663227 0)
(-0.00641480898299409 0.498444018261173 0)
(-0.00576386338923163 0.497792450868115 0)
(-0.00463387644142837 0.491780327519778 0)
(-0.00414505448746063 0.488528269163972 0)
(-0.00389689007262389 0.485768192198521 1.22273125385762e-20)
(-0.00508117207710156 0.483941085071597 -2.88407483820687e-15)
(-0.00636022400893926 0.486760828249582 -2.83320022332719e-15)
(-0.00645561248917112 0.487769708085021 1.18797586640944e-20)
(-0.00608758158827264 0.48776751765134 -2.29974712161966e-20)
(-0.00507974595267003 0.485563191413304 2.29974712161951e-20)
(-0.00398273972226672 0.486082007072472 -2.24468912020988e-20)
(-0.00396789065663618 0.486347527969764 2.24468912020999e-20)
(-0.00471105011989287 0.485859090278997 0)
(-0.0049705488412302 0.482275867154051 -2.16176334846253e-20)
(-0.00412887529715439 0.486389748466252 2.16176334845362e-20)
(-0.00363913464792183 0.48464103927992 0)
(-0.00397738342942822 0.48370714734681 0)
(-0.00364771820255451 0.484627408104231 0)
(-0.00301385312198252 0.484277868429248 0)
(-0.00399060267104084 0.481096194916165 0)
(-0.00549388891121667 0.487530687383867 0)
(-0.00622998234677024 0.485595175171143 0)
(-0.00598840348941879 0.481776275459702 3.83616201066572e-20)
(-0.00557601545864048 0.479848771731424 -7.60457124827953e-20)
(-0.0052201773763893 0.481959216963381 7.47338940240162e-20)
(-0.00426253253184842 0.483075275904855 -3.70498016459876e-20)
(-0.00452329608582608 0.481153307400835 0)
(-0.00575722785582897 0.482371298021002 0)
(-0.00436324433307927 0.482156954035614 0)
(0.000471478706606413 0.485863937419296 3.48052832139137e-20)
(-0.00452321882597159 0.468410906149856 2.16997508147765e-18)
(-0.0318405586392692 0.450958599698814 4.31986855721497e-18)
(-0.0679883389499842 0.449103234601439 -1.1234701749137e-17)
(-0.116282043756796 0.472146283944637 -4.76232368890955e-20)
(-0.173649553545376 0.507434708068104 -5.08129873752604e-17)
(-0.237823510140235 0.550065076010011 5.61645607412706e-20)
(-0.312681974069156 0.609875425537362 -5.86977376133277e-20)
(-0.392376413237113 0.673514704994103 -3.54677698325432e-17)
(-0.486280637905137 0.75121465364831 3.86347263429506e-17)
(-0.559251648113093 0.810474207788491 3.45434336433146e-17)
(-0.64648664389147 0.887899691343059 8.1546784957359e-20)
(-0.729113303730251 0.977727646225521 8.22890773300579e-18)
(-0.791758227571863 1.05579808385743 4.53048215199109e-20)
(-0.863643875494466 1.13129217845638 -9.43386465428168e-20)
(-0.932651085201218 1.20644308473772 5.46802865442853e-17)
(-1.03411769061816 1.31251820701494 -5.20144715664601e-20)
(-1.16243569371614 1.43844567405102 6.10304983155787e-17)
(-1.30983602056098 1.57991390212127 2.86132978459516e-20)
(-1.44928913560327 1.72854343648365 -3.02128179090753e-20)
(-1.52762686067111 1.85300269912913 -8.23347549316413e-21)
(-1.62735025355927 2.07929517837697 8.50976761143919e-21)
(-1.68126658259163 2.37196016998509 0)
(-1.4201771271677 2.34711955068875 0)
(-1.1154570107936 2.36111720049172 1.77208464566369e-17)
(-0.64097612770733 2.17603259161783 3.29091746269284e-17)
(-0.259475537579687 1.92852629199742 0)
(-0.0815395867439201 2.93356879141606 3.5377535098685e-18)
(0.0167922219413653 3.4202210190964 0)
(0.0232968735454273 2.05610321360305 0)
(0.0111803119030104 1.86613576899185 -6.02089964849117e-18)
(0.110256213398974 2.14896851284129 -3.67570132628745e-18)
(0.427829847385175 2.25777082949651 -5.48083924576233e-21)
(0.363185403005568 1.00745381174527 -3.98827923473028e-17)
(0.33778541328826 0.5846772171187 -3.53914893814444e-17)
(0.391316644104575 0.567845206178261 0)
(0.41393955958678 0.549918426177673 0)
(0.387197590937668 0.48869346000277 -2.70950062357945e-17)
(0.330747010954866 0.41225168435811 -2.43521574414899e-17)
(0.309327641347865 0.387752437102691 1.84755879815832e-17)
(0.280769653015616 0.354950017526228 0)
(0.261664945117847 0.334228156786584 1.90256743958293e-17)
(0.254702235879535 0.326231195339349 2.80480843941052e-18)
(0.242896051283585 0.311547292048266 1.78753357637692e-17)
(0.224436309665453 0.292450797426156 -1.760509916558e-17)
(0.20767029231162 0.273922250174486 2.33007077574785e-18)
(0.169150541261265 0.227361177193299 -1.45200451575528e-17)
(0.14665713804026 0.204359160358328 1.40574794099188e-17)
(0.124261827046297 0.181954799220474 1.45863035938351e-18)
(0.103080554283128 0.162803006507206 2.76182789660695e-20)
(0.0868019989384798 0.15001788274454 0)
(0.0705788505558869 0.136636734539314 -1.40231455858632e-17)
(0.0598870331024757 0.132791696327516 -1.30013289358161e-17)
(0.0517283449625791 0.138182453842085 0)
(0.0437156970148558 0.151039535106368 7.24012974474858e-18)
(0.036431607792736 0.168799085448483 -2.9549437013311e-20)
(0.0287863452496394 0.189650773134351 9.58105248374418e-19)
(0.025019553347901 0.195007435077715 -3.90745064754582e-24)
(0.0229285559472684 0.198411364244905 3.76919714004318e-20)
(0.0206801151588795 0.204728470704264 -7.78079341076568e-20)
(0.0193022833406173 0.212014886118505 4.01159627072275e-20)
(0.0181639925224204 0.221095007538861 -4.45075207953803e-20)
(0.0162143840990663 0.22786072124712 4.45075207957695e-20)
(0.014415176480924 0.2341466627792 -4.80977226870199e-20)
(0.0140732336680815 0.237432515464734 -1.64957476338045e-21)
(0.0131926022827198 0.243495774231186 4.97472974511569e-20)
(0.0119368486346815 0.247013047958011 0)
(0.0104573711251516 0.251697129383845 0)
(0.00785871990475666 0.255151846344137 5.48397070044134e-20)
(0.00649561151662366 0.261604307037398 -5.48397070044101e-20)
(0.00621132557164689 0.271382132536251 0)
(0.00595930899973788 0.278384125455122 2.85138227061415e-20)
(0.0052337918993874 0.281614836857364 -2.85138227064285e-20)
(0.00647577123424639 0.283126310121648 0)
(0.00819772803277231 0.286571261479509 2.96805256082008e-20)
(0.00664267144803457 0.292926909664048 -2.96805256082028e-20)
(0.00163891343125434 0.296415882432238 0)
(-0.00114631126254414 0.297901555900865 0)
(-0.00328622363278008 0.300173730690051 0)
(-0.00425645891625181 0.301421546810514 -1.4828324334547e-20)