/*--------------------------------*- C++ -*----------------------------------*\
  =========                 |
  \\      /  F ield         | OpenFOAM: The Open Source CFD Toolbox
   \\    /   O peration     | Website:  https://openfoam.org
    \\  /    A nd           | Version:  7
     \\/     M anipulation  |
\*---------------------------------------------------------------------------*/
FoamFile
{
    version     2.0;
    format      ascii;
    class       volScalarField;
    location    "2000";
    object      k_LES;
}
// * * * * * * * * * * * * * * * * * * * * * * * * * * * * * * * * * * * * * //

dimensions      [0 2 -2 0 0 0 0];

internalField   nonuniform List<scalar> 
15600
(
0.00365386186206383
0.00378382367652654
0.0012134831361038
0.000435141261222877
0.000653092594260959
0.00105571162970697
0.000982363477517022
0.000608485130161348
0.000596287152933327
0.000572826672907158
0.000369582284989457
0.000314512909778959
0.000427021279280703
0.000431011827109236
0.000381298541858327
0.000312651078285419
0.000351973928936588
0.00068385938363774
0.000768868912399839
0.00123329977470766
0.0014217488076581
0.00180790127547073
0.00206912401753396
0.00238485939064496
0.00248392116239959
0.00278341136402565
0.00276532656071176
0.00291226373301183
0.0030110066458125
0.00350409797240017
0.00370835470736412
0.00401174446014115
0.00432697464381422
0.00480192122142487
0.00511116997742093
0.00525134987206834
0.00527164083526748
0.00541610574958699
0.00557656944910192
0.00579188350270242
0.00571068212756815
0.00603930439514328
0.00578590896560318
0.00591639778797549
0.00584979452014561
0.00587960012763861
0.00612865770112194
0.00651329336976443
0.00585993870841699
0.00576991862887486
0.00595350598375946
0.00616366145256837
0.00547050721704781
0.00538614788520286
0.00538545934762378
0.00552322898088138
0.00576444330635728
0.00532529946166201
0.0055568543375802
0.00547347949585847
0.00538854304764715
0.00570670205265944
0.00529500257401342
0.00465781976104076
0.00508255015544794
0.00564290359753743
0.00560613130247107
0.00565667661389099
0.00408577675252664
0.00455172242323316
0.00522736599753764
0.0051399017149551
0.00368995080726374
0.00442725120070383
0.00495110082393129
0.00346644952394531
0.00441256001016882
0.00447809451787161
0.00392286251948415
0.00441631120698272
0.00402523583216983
0.00304843005070619
0.00417105877660844
0.00397864542361747
0.00343615654406502
0.00321971450043707
0.00329673554631724
0.00371585624448251
0.00288828887024371
0.00333921967791782
0.00274803112848052
0.00277517879653163
0.00354962218119056
0.00409759003779326
0.00455700758654672
0.00479024453281612
0.00487571781790439
0.00483165996772298
0.0046439623177456
0.0040525875408106
0.00391903284276
0.00351886343838132
0.00251553133124001
0.00161325772796054
0.0013122237697516
0.00159512395538584
0.0017810392851273
0.00169197029618853
0.00116909667434891
0.00129757757019494
0.00191911813034375
0.00191703567492799
0.00180909097361135
0.00258218763506139
0.00269487585143168
0.00152484169157158
0.000839965444853829
0.00105849966249096
0.00161572077038265
0.00231092790740861
0.0172096282043679
0.019331665817731
0.0123874010321949
0.00731115525059685
0.00669082414568085
0.00670830071026475
0.00678267435667012
0.00594927221380214
0.00535840309785873
0.00491019063324714
0.00428751130153303
0.00396419490598712
0.00381596754479635
0.00372212787463189
0.00376668341832098
0.0038723242522468
0.00403574338401974
0.0045288173143636
0.00496973786652351
0.00549110492929487
0.00609248898498991
0.00680992682782421
0.00746112877543728
0.00815773573899904
0.00883761803915115
0.00951057428262496
0.00998320794864561
0.0105257189068803
0.0116012119560595
0.0130954783358486
0.0143198274758731
0.0155754950528805
0.0164657478054065
0.0173756454633432
0.0181925564574768
0.0188823473568781
0.019608283301153
0.0203429431010428
0.0209131153192278
0.0211241567607669
0.0216134517332528
0.0216265429826925
0.0219582789010508
0.0219697045867932
0.0223466811833338
0.0225524052115443
0.022745738018113
0.0230288503566829
0.0228503499978222
0.0226065047308637
0.0222555191522608
0.0222380766356047
0.0220319824416102
0.021761931314673
0.0215699333706127
0.0213295513851459
0.0211724399413675
0.0208389259506819
0.0205028236038105
0.0203031840552347
0.0201022186403462
0.0197790064429113
0.0193907657456654
0.0189614473560122
0.0187424688857094
0.0184662032755498
0.0182475372289734
0.0179634851684012
0.0175116120418376
0.0169911014774315
0.0165929272846499
0.0163637450666129
0.0160977005965057
0.0157295958102258
0.015570511624629
0.0153120488103185
0.0148786834512873
0.014733896547433
0.0143926905882491
0.0142081608285249
0.0139457280264757
0.0138575043190654
0.0135256367018543
0.0130855482875635
0.0127136751019303
0.0124122818784676
0.0120695103148766
0.0117929651124726
0.0115947598828886
0.0112491931452977
0.0109732972045134
0.0108333269354696
0.0116165203514661
0.0131379674192537
0.0147300667271249
0.0155567726270053
0.0162462154125349
0.016622309945545
0.0168024909461017
0.0167967604267186
0.0167876521132229
0.0163923098218316
0.0162884795821933
0.0155413404429991
0.0154201041841926
0.0151926214985831
0.0151805506650064
0.0150794994993442
0.0152135562608969
0.0156357247760026
0.0172144470699868
0.0179439273214054
0.0187120606205603
0.0196529405265391
0.0192111012422872
0.0181294795654915
0.0161876744942216
0.0149677172829912
0.0113916245713556
0.0123118622473227
0.0329302327721422
0.0365389435076682
0.0274683103511408
0.0162759003874106
0.0131614984373233
0.0123680559823563
0.011050868625907
0.0101014414313312
0.00929056301171107
0.00872401619586591
0.00820733581185248
0.00800096760174959
0.00793760309270365
0.00794759078761451
0.00809704808354257
0.00841470856319085
0.0086044797757375
0.00924562582947756
0.00961217156120242
0.0101774267282164
0.0107637931335171
0.0114325594484143
0.0120964437817645
0.0128007396117962
0.0135235833873915
0.0141323387350328
0.0147334572104663
0.01569935380814
0.0174426212801486
0.0192796407313791
0.0208684049082863
0.0222417080096744
0.0234879369693687
0.0247472876759347
0.0257745218985288
0.0267445008114432
0.0276720132305623
0.0284667790809046
0.029287572129715
0.0298793494337563
0.0302194741937721
0.030587904477043
0.030834958368927
0.0312317584429393
0.0315342255035983
0.0320109484071589
0.0325014389728388
0.0327523926458653
0.032598203082846
0.0325677551706145
0.0320699492002042
0.0318786678878186
0.0317049186687864
0.031335637417102
0.0311545136802978
0.0309534354802054
0.0308022913567154
0.0303547513782211
0.0299345208517002
0.0297131362539422
0.0295164835664655
0.0291124139723784
0.0286572474579542
0.0281212553541473
0.0278183414352737
0.0274636505003313
0.0272066971118357
0.0268778316895947
0.0263877007636872
0.0258497991554324
0.0253766530072834
0.0249218108650401
0.0246106348982088
0.0242955371640781
0.0239856664814148
0.0235958632772929
0.0231798336060649
0.0228996977422205
0.0226261477630442
0.0222558719652218
0.0220459675854142
0.0218411831566475
0.0213732676045918
0.0209179246548307
0.0204806468792106
0.0200661476002122
0.0196207135786615
0.0191982198131336
0.0189433741636598
0.0185323098313936
0.018088004086542
0.017868068311442
0.0183573151713139
0.020102916858807
0.0223019088071011
0.0241542076943292
0.0255850662808317
0.0266368163594546
0.0274943294038589
0.0282097638889357
0.028907947363
0.0291698154103829
0.0299843201883654
0.0294692830032671
0.0301465393611507
0.0299658836654656
0.0301001168615608
0.029814435379404
0.0295521143658384
0.0289016271290997
0.0296338467028443
0.0300406574789033
0.0309119882837945
0.0316156286856482
0.0348132788397901
0.0371504753909244
0.0354529964634489
0.0342567384419197
0.0284016366805182
0.0274964154624879
0.0473865928987971
0.0507645759152199
0.0418133459513445
0.0259216875188264
0.0181121277451214
0.0172447503149042
0.0155772004050781
0.0140476615261674
0.0129264802807607
0.0124405474129092
0.0117183844378532
0.0114885855477244
0.0113743794055348
0.0114332267595976
0.0116929745966403
0.012120549474436
0.012220448210188
0.012787490599613
0.0129998555242977
0.0134240657459989
0.0137543599334238
0.0141843051904086
0.0147924371062101
0.0154301095404307
0.0161195296402919
0.0168132065291921
0.0175928701357822
0.0188294264176833
0.0208145880993156
0.0227493791036098
0.024401581773476
0.0259268339690965
0.0273272013533849
0.0286728359355762
0.0297905303436336
0.0308744539070912
0.0319370561854991
0.0328800466543346
0.0337420470950571
0.0344499217718052
0.0348924848990062
0.0353254464664397
0.0357158432209909
0.0361729124366336
0.0364957760042557
0.0371174262429937
0.0376788488928175
0.0380600594501733
0.0378885136938384
0.0378698821489361
0.0373412934812065
0.0371625658128598
0.0370454771235396
0.0366154717561596
0.0364577010508385
0.0363114696760926
0.0361655350774821
0.035689664632269
0.0352394023753559
0.0350178917784028
0.0348480757433874
0.0344209962588779
0.0339617760261386
0.0333945849625698
0.0330395202724949
0.0326531344941626
0.0323762845064693
0.0320296066538771
0.0315632638175809
0.0310119293096004
0.030530323694026
0.0300378765317295
0.0297175311943547
0.029400612187299
0.0290826427973208
0.028646813426751
0.0282873225480333
0.027986166436748
0.0277050372576475
0.0273497591341245
0.0271213785425132
0.0268675229680873
0.0264828560749702
0.025988464892611
0.0254860182465214
0.0250302812577281
0.0245938193875468
0.0241950188138946
0.0239117863678322
0.023471261923962
0.0229905923428323
0.0227731143595711
0.0230662750667859
0.0247529157151866
0.0270464471249906
0.0292365475564565
0.0310656664729765
0.0325274705045057
0.0337757089705399
0.0351844393650352
0.0365983933541587
0.0372853988421087
0.0386582749548122
0.0383826023839125
0.0396855332406453
0.0397206412785136
0.0400796689482744
0.0401762971424251
0.0403750765610461
0.039946979222897
0.0400655556553252
0.0409536682222433
0.0423884439491734
0.0448625122492019
0.048910895651704
0.0507761591414335
0.0476890502910895
0.0457475990653832
0.0446996188174942
0.0441294112420793
0.0586018592885569
0.0609616465888385
0.0531970475631967
0.036397547655147
0.0226053392728861
0.0203778310444019
0.0191561632333224
0.0176570209183179
0.0163355598665138
0.0153635829339115
0.0144898616916488
0.0141582570832308
0.0139856053443554
0.0140539952494129
0.0143522909619334
0.0147511120779911
0.0147861942513441
0.0150389617862325
0.0150824351755271
0.0153538765451703
0.0155165385885388
0.0158612684372039
0.0163044507395287
0.0168970488827628
0.017631122139805
0.0184545015828173
0.019398886776772
0.0208598762595163
0.0229067812475841
0.02486378120037
0.0265744670585922
0.0281718030942559
0.0296620889312071
0.031077342279255
0.0322557658611199
0.0333832152899688
0.0345069411923103
0.0354935235185838
0.0364163772048346
0.0371663001143001
0.0376734696969763
0.0382053477668902
0.0386670425481513
0.0391586076734325
0.0395042476632219
0.0401944816450264
0.0408155683983418
0.0412570532223687
0.0410777314216674
0.0410736875725852
0.0405520622151914
0.0403928180910966
0.0403262913749413
0.0398683335595726
0.0397047518416977
0.0395758591963158
0.0394344295921529
0.0389971617786555
0.0385569449101139
0.0383492605423006
0.0381852022719393
0.037756972892196
0.037309236361784
0.036762970121728
0.0363553358677221
0.0359441610253663
0.0356390926562438
0.0352790375869383
0.034838790372885
0.0343195949673188
0.0338468495224433
0.0333539952562691
0.0330519999574431
0.0327418528688965
0.0324242920147305
0.0319729532551717
0.0316274572774794
0.0313168639834917
0.0310274770779335
0.0306728434524686
0.0304570160918098
0.0301986656007642
0.0298435869003781
0.0293563419971025
0.028853690941435
0.0284063000009478
0.0279978164376842
0.0275932963384814
0.02730594932516
0.026919414211983
0.0264709446976803
0.0263100129548326
0.0264977903638304
0.0279512637881179
0.0301165307752448
0.0323529474429234
0.0343543404453169
0.036064351309989
0.0378244408952709
0.0394251118576809
0.0411666357484895
0.0420740600197731
0.0437392824517067
0.0441688718441078
0.0454887812320866
0.0458556305065715
0.046443328396712
0.0469344336521057
0.0475777113985196
0.0478770001783224
0.049486633915962
0.050278008451219
0.0524932883795738
0.0550039222243447
0.056864702020987
0.0585215303726775
0.0546673452717713
0.0510389580500411
0.0538546914324521
0.0572354916743711
0.0658875855621177
0.0675738123601575
0.0612899707963209
0.0467203399137649
0.0276378643188733
0.0229593594726075
0.0213707744592199
0.0199460801514556
0.018440509160285
0.017331159168401
0.0165417871075641
0.0160995461973889
0.0158969934929803
0.0160230379619433
0.0162385031324706
0.016535289223719
0.0164943022793717
0.0164451631089625
0.0163819182891094
0.0165114850009037
0.0165766572366488
0.0168312117078782
0.0172387078359966
0.0178331748845176
0.0186366626462903
0.0195713650973383
0.0206763611031447
0.0222849929438319
0.0243622172599097
0.0263546946091174
0.0281167820212881
0.0297706391288426
0.0313323888430864
0.0327967020852866
0.0340248858379974
0.0351665902791549
0.0363368929517179
0.0373410447900438
0.0382849578411416
0.0390518801646477
0.0396091330333019
0.0402178150327429
0.0407339023577725
0.0412483301238516
0.0415987468086672
0.0422821773906019
0.0429569908360323
0.0433970072655923
0.043251393854648
0.0432731353865278
0.0427668429733432
0.0426258760089313
0.0425798581945321
0.0421333179937633
0.0419379617492095
0.0417778615769279
0.041643772016296
0.0412773328931027
0.0408717246779185
0.040670904506787
0.0404924324375307
0.0400752207602606
0.0396462490169277
0.0391576614497222
0.0386963973918827
0.0382683165117449
0.0379280065415688
0.037555036626575
0.0371252333311003
0.0366374974880094
0.0361755615600801
0.0357033379863637
0.0354263852372583
0.0351238797986538
0.0347977211669352
0.0343445069954079
0.0340233054335046
0.0337037674537957
0.033385682826329
0.0330347932714243
0.0328324587917902
0.0325668847996758
0.0322411765599708
0.0317686313499334
0.0312769963826337
0.0308460944040191
0.0304837051544123
0.0300797010011803
0.029769957086841
0.0294319039630428
0.0290467526537027
0.0289528982183579
0.0290749109945752
0.0302937300796257
0.0322706878466051
0.0345012141703318
0.0365258173114186
0.0383666498274016
0.0402905997367448
0.0421717618405017
0.044062927879118
0.045201368855171
0.0468783171256223
0.047915626948578
0.0491472336292528
0.0498179924248114
0.0507000850700494
0.0513221533326963
0.0521798928941809
0.053119170533336
0.0543613787743735
0.0563100363332965
0.0583084302853594
0.0604450591166736
0.0615922852458453
0.0630677609196624
0.0591879591991959
0.0545114154650401
0.0566458193246773
0.0643615101799993
0.069264662253141
0.0712413086559942
0.0666234312405297
0.0558056650255937
0.0334762476724903
0.0256158395629143
0.0231520477227652
0.0214728077705863
0.0200011751693801
0.0188486863886017
0.0180427571314916
0.0175266263174086
0.017286405197356
0.0173798339298595
0.0175547346249508
0.017730355996839
0.0176172498750858
0.0173504224901982
0.0172211108442546
0.0172278320932246
0.0172615274846404
0.0174851053298949
0.017895905285515
0.018517129103732
0.0193722232691064
0.0204207772078086
0.0216784133532911
0.023386453023051
0.0255021806695356
0.0275370317948203
0.0293405050763346
0.031044868134856
0.0326724986872246
0.0341852052457297
0.03545591318344
0.0366002291516064
0.0377960454965382
0.0388080072540466
0.0397605048969553
0.0405200985632657
0.0411238422627794
0.0417831550813604
0.0423339595631099
0.0428769030212036
0.043205997211053
0.0438579596640413
0.044553592866055
0.0449654791166369
0.0448818399392662
0.0449240845398394
0.0444501398849724
0.0443158538771712
0.0442661655417782
0.043848140448725
0.0436284741850688
0.0434042158931451
0.0432629541108891
0.0429694019886789
0.0426123522056647
0.0424049207838488
0.0422038741157641
0.0418116021009231
0.0414118458942958
0.0409886302895568
0.0404834461204709
0.04004207451248
0.039664908044168
0.0392738860323195
0.0388410825303025
0.0383729607694186
0.0379260022998441
0.0374851345280618
0.0372291983477857
0.0369269957828008
0.0365867120576663
0.0361367106811846
0.03584915094972
0.0355248620265958
0.0351752776231239
0.0348164553704364
0.0346180565815953
0.0343461027955938
0.034039822695873
0.0335816091534245
0.0331034548114586
0.0326835343830143
0.0323698132566996
0.031985240137843
0.031654786530447
0.0313453471747832
0.031014326101663
0.0309719495426219
0.0310662950576288
0.0320832773853695
0.0338652239308633
0.0359964523905515
0.0380386494390798
0.0399339283675256
0.0419593219545837
0.0439718049927158
0.0459219447544147
0.0473219844892688
0.048963352980127
0.0504230998635299
0.0515401751056735
0.0524679729830273
0.0533513650451636
0.0542486103614065
0.0552258652686768
0.0565881784851344
0.0577978846627989
0.0599082178258556
0.0616059885889248
0.0638158292152799
0.0647421775479829
0.0658061456293364
0.0621793325180154
0.0574993000992041
0.0568804160994732
0.066073088544341
0.0696649946327201
0.0726378605952922
0.0697850400442237
0.0630094497764265
0.0399574652157268
0.0286074232872342
0.0248375223356755
0.0227926776118509
0.0211850522124798
0.0200469435360062
0.0191489987143751
0.0186637763494777
0.0183348642993738
0.0183674845036781
0.0184707707912928
0.0185257534735426
0.0183580002787151
0.0179542683016658
0.0177805207897008
0.0177110414791051
0.0177479471692326
0.0179658700928474
0.0184078277100768
0.0190639294571295
0.0199757503374475
0.0211282957287007
0.0225233900824731
0.0243235093660614
0.0264913416608659
0.0285622797386977
0.0303951633995023
0.0321507493411059
0.0338449156906807
0.0354075434218626
0.0367114398277528
0.0378484993201042
0.0390606084318491
0.0400725012186401
0.0410351769937621
0.0417668356324373
0.0424162482150779
0.043114147740166
0.0436719598281179
0.0442342908319977
0.0445348044309106
0.0451567670218148
0.0458321954605281
0.0462067095126894
0.0461966160395652
0.0462475987005448
0.045822926792487
0.0456876003614063
0.0456150924468393
0.0452212209324162
0.0449858771910182
0.0446887427497646
0.0445314435745282
0.0442952238083313
0.0439954695012913
0.0437712080169944
0.043549343721885
0.0431913321380808
0.0428301578339205
0.042467573451439
0.0419275908446823
0.0414814285360484
0.0410641090800723
0.0406446992895524
0.0402026641329703
0.0397434431236242
0.0393103874004723
0.0389014834662879
0.0386663827777155
0.038357060801995
0.03800499408132
0.0375627763422254
0.0373045493569719
0.0369836902500017
0.0366112997485071
0.0362304773108703
0.0360182013880027
0.03574583859694
0.0354387651559578
0.0349976098447848
0.0345335756114298
0.034117117402841
0.0338415147407789
0.0334937040380813
0.0331513272415554
0.0328602935551725
0.0325682137909012
0.0325432275974748
0.0326278865003226
0.0334921569917287
0.0350816277527218
0.0370790155372003
0.0390709580558729
0.041009293872444
0.0430890815826465
0.045194227189796
0.0471660651440073
0.0487804167760777
0.0504096393438942
0.0521341236524825
0.0531438951298126
0.0542887884289911
0.0551612391775393
0.0563045066558374
0.057440883491108
0.0588753090182072
0.0602169359329618
0.062188691770559
0.0639227933009848
0.0657653330513339
0.066743252579848
0.067368572324119
0.0640409461880744
0.0599797271983051
0.0570834009196706
0.0648434402907836
0.0681801767221649
0.0723427950179237
0.0712438383755453
0.068174018684372
0.0468632391993203
0.0320210910747526
0.0266641648044892
0.0240366986253894
0.0222439665756246
0.0210119981136827
0.0200242999154091
0.019505447555065
0.0191585249345193
0.019106319588985
0.0191008434160946
0.0190536508398348
0.0188488099113322
0.0183490695529714
0.0181682330164655
0.0180627761710909
0.0181291135734795
0.0183606539467352
0.0188464331897306
0.0195520713029915
0.0205243513155966
0.0217652032426271
0.0232772093419087
0.0251847108251858
0.0274076727574071
0.029506194264603
0.0313577323671466
0.0331585950297105
0.0349184870664645
0.0365376485507447
0.0378652023574863
0.0389945420942479
0.0402083291339
0.0412239085773045
0.042195504093766
0.0428965668992049
0.0435723622676708
0.0443060302994079
0.0448474635385582
0.0454159072913098
0.0457012779701191
0.0462855865932519
0.0469033633868567
0.0472435978127443
0.0473055601778939
0.0473517621544028
0.0469970551425987
0.0468590180825813
0.0467433645602767
0.0463649635763669
0.0461346117010914
0.0457687485632684
0.0455805057122839
0.0453947442408382
0.0451495769469911
0.0449039940152836
0.0446551630836399
0.0443377482801098
0.0440274874199326
0.0437036777302074
0.0431446087560623
0.0426984531880006
0.0422377069614331
0.0417840181698541
0.0413310145935444
0.040872726416845
0.040460091295894
0.0400747449975362
0.0398551197469937
0.0395366079580043
0.0391799097096896
0.0387436076960688
0.0385076170254324
0.0381910017793762
0.0378098020520362
0.0373983129188893
0.0371553809381493
0.0368826028867141
0.0365618265211211
0.0361396531992527
0.0356886697022025
0.0352767809263345
0.0350253139521348
0.0347159198084633
0.0343691275041705
0.0340891884532163
0.0338241428607855
0.0337915922786526
0.0338626266838385
0.0346011139783563
0.0360207423361505
0.0378709945070326
0.0398018495014942
0.0417305150929063
0.0438350375519517
0.0460107917980273
0.0479853020131523
0.0497687668927631
0.0513676501861855
0.0532870391724903
0.0542229481886275
0.0555344133348946
0.0564212941552702
0.0577859677629906
0.0588309183629609
0.0604507140700691
0.0618197679506528
0.0638522033455921
0.0654406586119764
0.0670494557818531
0.0677796415531046
0.0682162443084595
0.0651199507001529
0.0618249664987023
0.0578008621283587
0.0628028260861827
0.0658576806659314
0.0709150937314167
0.071386115817584
0.0714325700023153
0.053681411047691
0.0359021414361757
0.0287254288876559
0.0253370258152923
0.0232411825863451
0.0218593062198958
0.0207879858418342
0.0202159421631387
0.0198153265902365
0.0196600000248443
0.0195613412318679
0.0194226073183083
0.0191871091463119
0.0186308313166286
0.0184536881667873
0.0183411645586755
0.0184597741180182
0.0187186854895636
0.0192513895894382
0.0200145600134917
0.0210591386097155
0.0223752733604403
0.0239932671952076
0.0260147530806539
0.0282886057307251
0.0304028895416612
0.032271288606683
0.0341182851986575
0.035933844870974
0.037615148002594
0.0389545250436503
0.0400833573812631
0.0412819063469886
0.0423026112710848
0.0432815925536025
0.0439571532016453
0.0446382226065101
0.0454013009855342
0.0459158084094573
0.0464828489227132
0.0467650014007981
0.0472926945210512
0.0478409788403343
0.0481445173886278
0.0482717696466598
0.0483043422350536
0.0480327091904534
0.0478909095737906
0.0477247048618127
0.0473512692717748
0.0471406871973536
0.0467201771190616
0.0464887625719095
0.0463486177877651
0.046142317154925
0.0458559289110033
0.0455955143910808
0.0453265351370341
0.0450740364753814
0.0447615781557594
0.0442053533407758
0.0437632376961199
0.0432570622179349
0.0427618282644033
0.0423021899812958
0.0418412127988179
0.0414510550983415
0.0410810244494939
0.0408697297383214
0.0405490255310327
0.0401912825497498
0.0397520919275547
0.0395329876432418
0.0392181392900026
0.0388392350683674
0.0383910939066662
0.0381056614670951
0.037828762255386
0.0374911576649287
0.0370854430418464
0.0366505869048703
0.0362403989569105
0.036000959697138
0.0357246982934907
0.0353776815787842
0.0350994271393144
0.0348558823630236
0.0348076102450351
0.0348521400951601
0.0354809796897985
0.0367491689967217
0.0384583364308362
0.040319804645434
0.0422089629588919
0.044330542622675
0.0465422649905585
0.0484949242093456
0.0504015905495246
0.0519944131405836
0.0540459901293106
0.0549497163975026
0.0564074076710465
0.0572556086767649
0.058819027180152
0.0597951503811989
0.0616201203313582
0.062831572232022
0.0649589189121474
0.0663356148510392
0.0678429723198816
0.0683026527449882
0.0685406543296356
0.065694301152593
0.0630394042812049
0.058807433812852
0.0611379101615885
0.0634840595956021
0.0688714237274232
0.0705623415523363
0.0730788254017165
0.0601045783704574
0.0402778229208097
0.0310953053467159
0.0267928612862701
0.0242642881460503
0.0226931719302856
0.0214774833045324
0.0208296511476273
0.020370731228432
0.020111277948683
0.0199100291436359
0.0196917949107417
0.0194001113547297
0.0188615590227497
0.01868743074428
0.0185846260923805
0.0187616443745127
0.0190662007681242
0.0196490205714053
0.0204750957642049
0.0215984221903262
0.0229991810607476
0.0247130998129028
0.0268427169700862
0.0291615428562117
0.0312778328348423
0.0331667520148298
0.0350644089298862
0.0369095322071583
0.0386513017125472
0.0399963816968697
0.0411282555436445
0.0423027599449396
0.043324254506177
0.0443086400933193
0.0449626631214451
0.0456383825696975
0.0464195051832891
0.0469109697124479
0.0474744743941432
0.0477533219277217
0.048218683231959
0.0486914906553486
0.0489605595046238
0.0491375466919782
0.0491484479298291
0.0489709338678191
0.0488225070229434
0.0486019953484833
0.0482275743835538
0.0480411285110057
0.0475829761005031
0.0473072723009614
0.0472000563161147
0.0470107831849173
0.0466859825494347
0.0464231315336054
0.0462026371388085
0.0460001009943153
0.0456841473900518
0.0451424380574707
0.0447111628516267
0.0441596997343583
0.0436239261556958
0.0431660796219919
0.0427026986776348
0.0423274722063395
0.0419651998861961
0.0417572329072811
0.0414334316370771
0.0410751849877074
0.0406325830320496
0.0404254574865751
0.0401046324099367
0.0397305634604906
0.0392435763612272
0.0389131940384584
0.0386306945024561
0.0382699988276212
0.0378779298780592
0.0374675335391953
0.0370511016168028
0.0368165725840508
0.036561279089426
0.0362208899978349
0.0359423094787399
0.0357103235994505
0.0356493154412175
0.035663730316469
0.0362016455217693
0.0373411224355056
0.0389056872374496
0.0406896442959327
0.0425240310471955
0.0446441428389996
0.0468570880346186
0.0487865059395076
0.0507613590933791
0.0523922113881731
0.0543782929129352
0.0554618525647669
0.0569485754148217
0.0578169727727081
0.0595365456362301
0.0603907126217623
0.0623959558028985
0.0634895751167272
0.065672913081969
0.0668805453102144
0.0682113888758595
0.0685179648086751
0.0685326194231747
0.0659259468222801
0.0637477832729453
0.0597764498978194
0.0602116175460122
0.0614959981040493
0.0666415277504963
0.069099618854379
0.0734569131419841
0.065749042609152
0.0450618686999056
0.0338456100989728
0.0284630715548834
0.0253815765151243
0.023558940276408
0.0221671431051645
0.0214087084246824
0.0208639442145308
0.020497726482694
0.0201941765173428
0.0199143496609885
0.0195797480872616
0.0190953006414382
0.0189030408063011
0.0188268865723462
0.0190632122526985
0.0194205296080116
0.0200517787680342
0.0209539621197505
0.0221542460930171
0.0236442285572143
0.0254547643278434
0.0276854770483449
0.0300457140311621
0.0321532068811803
0.034055551674378
0.0360009770400437
0.037869548884411
0.0396510059501655
0.0410108197498607
0.0421464486373817
0.0432950296191231
0.0443197382037741
0.0452873444194856
0.0459430333480375
0.046609654998118
0.0473994399246346
0.0478719677071546
0.0484195293261866
0.0486871529099406
0.0491066478336367
0.0495051050221339
0.0497297143217245
0.0499392078331948
0.0499269930416487
0.049812726714244
0.0496795979007595
0.0494057616179153
0.0490354081488968
0.0488556233132783
0.0483940354776108
0.0480726948060732
0.0479775414979927
0.0477918992814435
0.0474363978317428
0.0471781014492988
0.0469972158913839
0.046820679174745
0.0465047067329959
0.0459758304474995
0.0455508741111326
0.044966212051078
0.0444049907170171
0.0439598186991257
0.0434907468498025
0.0431247193238878
0.0427595720242247
0.0425500072018798
0.0422046444283994
0.0418446565539385
0.0414125650123238
0.0412061029152657
0.0408641768891489
0.040513290338731
0.0399966413408611
0.0396230450167452
0.0393279955195614
0.0389545130886651
0.0385713657050232
0.0381792518929598
0.0377533319324584
0.037519644619061
0.0372815006671127
0.0369296637134988
0.0366469238324965
0.0364301837309411
0.0363592146567618
0.0363473961899299
0.0368166741863498
0.0378321953719332
0.0392603880084307
0.0409501730493833
0.0427226905992716
0.0448265062526173
0.047004193461311
0.0489033552252906
0.0509206383376349
0.0526612565265238
0.054511894207657
0.0557717367486359
0.0571877998421704
0.058228603996534
0.0598987119238748
0.0608164684873316
0.0628818684144574
0.0638585545537293
0.066107752077668
0.0670755562927896
0.0683108843478904
0.0684781370196525
0.0682717048685722
0.065911929849315
0.0640897875928148
0.0605038823016742
0.0599110510329539
0.0600374245641612
0.0644936139210684
0.067324134140292
0.0728987701645739
0.0702922933502845
0.0501497644601943
0.0369969257304877
0.0304006092369019
0.0266542165861363
0.0244976939187557
0.0229009733943962
0.0219902996448138
0.021339096802186
0.0208651970954736
0.0204687997392567
0.0201237006714176
0.0197634707107054
0.0193224484748068
0.0191101452617346
0.0190857565067906
0.019378103439987
0.0197930389476915
0.0204671038339409
0.0214555721363302
0.0227398749988321
0.0243221056145699
0.0262308400426384
0.0285523823854296
0.0309497519135691
0.0330376183998308
0.0349655648302778
0.0369422634460287
0.0388158111546201
0.0406238111185669
0.0420166403483194
0.0431566515336942
0.0442740734380141
0.0453020491634007
0.0462439067436402
0.046920551349365
0.0475781054905964
0.0483633061783952
0.0488346860771516
0.0493499963644195
0.0495893178297644
0.0499564061229517
0.050294218167785
0.0504751705422144
0.0507016426601363
0.0506672120148778
0.0506067898442943
0.0504834189065353
0.050169594492311
0.04980913182396
0.0496219977904369
0.0491747331422118
0.0488091989481176
0.0487084999778152
0.0485069788913944
0.0481370905086202
0.0478855900636221
0.0477253473866819
0.0475559832397362
0.0472574770052416
0.0467317937902993
0.0463090432703213
0.045712873084989
0.0451357716255971
0.0447117040385255
0.0442299250638466
0.0438668266008058
0.0435072698707281
0.0432858070101849
0.0429075876204401
0.042534681121541
0.0421283269795768
0.0419117249939126
0.041551744337494
0.0412091333759802
0.0406751337712705
0.0402616811227107
0.0399512930888149
0.0395639405655097
0.0391922731614313
0.0388154047059339
0.0383918898852717
0.0381486531025263
0.0379043520244831
0.037553675536082
0.0372651068842501
0.0370638581013153
0.0369894978489718
0.0369470481887365
0.0373502770498151
0.0382459267565496
0.0395523677291613
0.0411333833310088
0.0428408795855584
0.0449034924489555
0.047025839422485
0.048904874461411
0.0509064279724217
0.0527450289477933