/*--------------------------------*- C++ -*----------------------------------*\
  =========                 |
  \\      /  F ield         | OpenFOAM: The Open Source CFD Toolbox
   \\    /   O peration     | Website:  https://openfoam.org
    \\  /    A nd           | Version:  7
     \\/     M anipulation  |
\*---------------------------------------------------------------------------*/
FoamFile
{
    version     2.0;
    format      ascii;
    class       volScalarField;
    location    "2000";
    object      kDeficit;
}
// * * * * * * * * * * * * * * * * * * * * * * * * * * * * * * * * * * * * * //

dimensions      [0 2 -3 0 0 0 0];

internalField   nonuniform List<scalar> 
15600
(
0.597720335581733
0.603573909916933
0.15760600394786
0.0405704555942245
0.0965011302860818
0.196456705340859
0.180468771547017
0.0956286835064334
0.0909984891890301
0.0813358745650919
0.0408557497863682
0.0295421184308806
0.0434654141117349
0.0406086445810583
0.0311731638503444
0.0208145337212747
0.0227184599150482
0.0510344677969728
0.052877653213092
0.0840697315779147
0.0886295434563446
0.104100941077976
0.109375163184763
0.117175131310364
0.113396804942543
0.121635596919675
0.116563734325282
0.12214358689734
0.125159178267408
0.145131330475679
0.151877386571896
0.163264557965967
0.176121169423735
0.196891639279017
0.20980194096197
0.214651884234924
0.213395378292026
0.218163958578881
0.224109860146045
0.234399827892716
0.228664750162938
0.244931087089565
0.231234762277628
0.237544723032572
0.23312733668055
0.233701174834849
0.2453794885147
0.263943912506907
0.231867034766358
0.227940135240073
0.238431859671276
0.249157075484116
0.215109307519106
0.211857129847531
0.21251144415748
0.220153887266902
0.232756023390678
0.211885434575736
0.224572119840359
0.221101638876532
0.217502197427287
0.234380471933045
0.21502233702247
0.184708295369012
0.206649273010746
0.235381630542349
0.234141404698757
0.237287068582665
0.160615317000778
0.185593344108821
0.220237270789919
0.216328118695001
0.145280809145963
0.183176259205928
0.209263516786701
0.136490531035062
0.184849469653818
0.188227550011304
0.161748201014326
0.18671039075313
0.167872690916013
0.120046080571073
0.176612118737714
0.167992872997684
0.142222737956477
0.132464512752142
0.137299909493235
0.158596811057022
0.118314143793796
0.141574711802019
0.113083259809084
0.115145387901459
0.15094656461943
0.174695027635446
0.198605233892477
0.218325942497338
0.235802021661701
0.25138602769329
0.262123359957734
0.246089720675638
0.259938580769701
0.251320709653984
0.178363567710838
0.104159730215972
0.0802975158734847
0.122464353771832
0.158609497515453
0.162397834423007
0.0966846305671052
0.130064874887767
0.252581974296785
0.272661096446958
0.262787525640383
0.440593990471814
0.474604782821844
0.203708679164211
0.0673043023302332
0.115823776961738
0.24459332974676
0.371986212245171
0.664330992480559
0.712051718500036
0.481640016195446
0.314852016685258
0.334787360394411
0.361572081154291
0.391299308329219
0.331659277144611
0.277040241150879
0.228775915105645
0.174301945668824
0.140513425442446
0.119446200259353
0.104227260229817
0.0960637004120119
0.0910912614120072
0.0886464861558882
0.0918825950273887
0.0947628364520886
0.0953508970281694
0.0996624252178888
0.100371081413683
0.101596932274401
0.103543852727827
0.10654101953843
0.111465136153778
0.1159483656778
0.125019569579878
0.138864322852234
0.153649102026973
0.168196908182573
0.185219056723857
0.195039161227962
0.204107390105168
0.213923705808211
0.222022503448112
0.231404987217741
0.242275674837066
0.249287838223844
0.249484982974216
0.258634246011286
0.254222420991581
0.261085641058876
0.256912189985087
0.264178494351217
0.264755281990744
0.264248234459292
0.268385431497223
0.267890840782408
0.261318774980627
0.256112636810532
0.257167424999352
0.25503223149308
0.25213077757704
0.24930569598955
0.24417732728023
0.241086332922867
0.237646377859493
0.231818885490945
0.229250672852058
0.226048405288034
0.220278949978092
0.215862900117423
0.212134173131157
0.207999629604516
0.202430202409774
0.199262336144485
0.194636070214221
0.192653439328166
0.183037098482268
0.17551283486955
0.174442174839336
0.175006422699093
0.166741799359324
0.163963282889747
0.165066056706826
0.155749149116752
0.154360466931217
0.150354218913476
0.147905645415771
0.144585797478893
0.147308649467182
0.139733018695701
0.133727906532479
0.130924717971705
0.128308156407811
0.124054249919071
0.120703780277945
0.12103204797096
0.115710424036667
0.115586034649298
0.117141774079737
0.127925037285388
0.144173610648408
0.165722379303612
0.177047623539804
0.193779505704115
0.209963932575676
0.227397773596499
0.250854599075052
0.262988568565735
0.274457783385024
0.293085742858714
0.300965885179454
0.314134223211697
0.328085985297792
0.361543208426092
0.402381359037285
0.45916337448191
0.560231861797813
0.703449523531821
0.827899766886401
0.941493012223721
0.988648283618074
0.932044459850159
0.799358584074245
0.723540602269679
0.672876499374588
0.437282750023522
0.454932531814245
0.456053097331569
0.470282182851495
0.379215337799423
0.256748164760511
0.275105296941212
0.267427516564647
0.233788273320844
0.214928697147315
0.185658132923665
0.156019563741943
0.133213843483152
0.115956852950815
0.104301448189543
0.0944554632417078
0.086910491282737
0.0840471356597
0.0801283540544452
0.081258190658512
0.0787588363600423
0.0771234311822334
0.078100002045599
0.0756957163300193
0.0746512857069856
0.0743250578155781
0.0751945224321365
0.0753642390349718
0.0771511416158695
0.0844439975830427
0.0953554436494215
0.104462690849197
0.115808906356561
0.124183133145577
0.13194788729436
0.140938595208041
0.148202833345178
0.154892001009166
0.160995216108848
0.165105635826307
0.171189947322419
0.177445035899924
0.177549423047264
0.180124182431789
0.179888019138891
0.183277556894178
0.185519449503385
0.187579926346036
0.19234476582978
0.193176189419093
0.192251134293684
0.192107416514621
0.188102762896679
0.185839832403098
0.183112700420866
0.181040137878564
0.180077135864685
0.177530729843246
0.176652135905061
0.172541024676305
0.168687763889956
0.167284819564382
0.165351688750343
0.161721628626158
0.158057478132087
0.154382550500535
0.152266907554244
0.14943809843584
0.147525555550109
0.144672181994726
0.141332004613206
0.137118044432869
0.13313298865736
0.129873225218652
0.128370793214929
0.126069466777044
0.123072848273285
0.120578810121342
0.117052136435617
0.114879682937939
0.113508335913291
0.110496711922652
0.109529663608691
0.108605216348112
0.10363355258448
0.100861835996054
0.0987803557278261
0.0962951664206108
0.0930551246393452
0.0902375538772757
0.0896074055804753
0.0872187143692845
0.0853463083470417
0.0873006919560566
0.0923387669231624
0.102063674204793
0.119134793966802
0.136745567000722
0.153054944184799
0.168497834722718
0.185601553257588
0.206487471178859
0.216833485691289
0.234404447304974
0.258454862323755
0.266658887475502
0.288828863747796
0.296700665700362
0.321940459940042
0.338721256644222
0.345166038290155
0.356475177276187
0.412028608654401
0.439952610714685
0.480748466859025
0.431636102766467
0.546104376677075
0.578555937255307
0.639763382899222
0.742612418072351
0.487545968030989
0.352477997550143
0.399382708101882
0.379670173714031
0.321328178672627
0.190251874676769
0.181174948295219
0.208086434026945
0.176587768981169
0.149293201240845
0.12701559911388
0.119649830604395
0.101008456444823
0.0897065276724228
0.0810196111999572
0.0744732647270819
0.0701291231547544
0.0698023650057402
0.0650776513223834
0.0671133045309431
0.0643168615289543
0.0619691575908545
0.0601604776640406
0.055165940235172
0.0548226369053848
0.0540161836400551
0.0534799129466986
0.0538423251033863
0.0555805762569279
0.0613846776484246
0.0689224221862081
0.0751409048726077
0.081877562056649
0.0884948533416146
0.094269974271624
0.0999096978209467
0.104679629211832
0.109557884301187
0.114727324810455
0.119948739541932
0.123188205059085
0.127982637635117
0.129655003030817
0.129849216930392
0.131841893351568
0.133842265640401
0.135746343003774
0.138154395716958
0.141331770240365
0.144276471691228
0.143078909129997
0.142239863912887
0.139271809286375
0.138251287465996
0.136609354909734
0.13466976673196
0.134882215169176
0.134077453164772
0.133696499463748
0.129778413253284
0.126475859110528
0.125525800686544
0.124746874650708
0.122007423839211
0.119386278037675
0.116169395659314
0.114807590067993
0.112935019995113
0.111845110528673
0.109885683145498
0.107785554264359
0.104293869201304
0.101591725858142
0.099353280585063
0.0980608559824359
0.0963972876836201
0.0946265425090071
0.09259161053594
0.0911840191376923
0.0897762291557444
0.08872422769145
0.087569913211517
0.086274371373729
0.0851775772323132
0.0834220304997853
0.0806265123832549
0.0782174042779623
0.0760905196786183
0.0741249988435473
0.0731675478611012
0.072546095703287
0.0701160605975495
0.0685840493965552
0.0706095899361583
0.0736816399864062
0.0808460613546928
0.0939765528936029
0.108821203936358
0.123281567809533
0.13632347859409
0.146122171470809
0.171599278507736
0.18835230575182
0.204641356736569
0.227398570288799
0.221361939667586
0.2547375529727
0.258756757732507
0.275903705064056
0.290599480441834
0.300439361179634
0.289083938590237
0.254313502685076
0.284929848109617
0.306086272870477
0.366438905537324
0.531853284922984
0.472603053083063
0.472363376032962
0.61130398060023
0.634155334776215
0.411830390565247
0.418338845588837
0.359739678215027
0.303171730757941
0.202052714993069
0.110920382023022
0.140648563214883
0.147402015341354
0.133617997880955
0.116875290057626
0.0989366596224646
0.0810014611387304
0.0725771572557825
0.0658708236119237
0.0606334727857418
0.0592983925856494
0.0596155876210891
0.0561735576874809
0.0554044072290919
0.0518176515362451
0.0494231120255017
0.0468303198550084
0.043670190795262
0.0410806350262198
0.0395954201342889
0.0392560904234288
0.0402003284058466
0.0416935743921778
0.0471333752051152
0.05163582966995
0.0553410991800822
0.0601299420972284
0.0645971561455017
0.0686809543584793
0.0730242423176046
0.0764834102671241
0.0800502145716984
0.0837417630942212
0.087451820197135
0.0909110908719544
0.0946727526104406
0.0959056315239133
0.0968296430349993
0.0983539002870705
0.100062429637492
0.101926617934129
0.104939177141955
0.107704668458263
0.111066092375373
0.109296318055606
0.108542078493021
0.106400692527646
0.10571485296676
0.105277829177353
0.103175573630313
0.103835114501334
0.104125766828081
0.103926989331684
0.100815281217462
0.0981053502584851
0.097745176574966
0.0975215747797525
0.0953555365573026
0.0933403892857108
0.0905553840572366
0.0895019562741349
0.0880288867254797
0.0873300777872583
0.0859215391609255
0.0847002447238006
0.0824855736717866
0.0806446011614666
0.0788978213684611
0.0780703639717231
0.0769625179718473
0.0758910013134605
0.0742430668106892
0.0729069227426577
0.0719635610541233
0.0715168383067085
0.070604462274206
0.0699556347302406
0.0693899028806323
0.067998414489956
0.0660321698591073
0.0644160597322807
0.0630500403784385
0.0615134100571134
0.0606235362804352
0.0607230248460946
0.0596241356242701
0.0586535887635105
0.06107383232774
0.0636329295427925
0.0673863597482299
0.0767302859361424
0.087116802906466
0.0995207775857587
0.111321404368172
0.128330611447833
0.141682371770364
0.156840364783023
0.167237035285514
0.19092895256101
0.194954112237879
0.217446951933217
0.225517730612495
0.236885169299541
0.258565148309443
0.279305868478759
0.288575464533004
0.375986290669525
0.333401894642217
0.404398361487741
0.443562357027445
0.425026011489327
0.382473249370678
0.325942864536271
0.420700429068932
0.647957773118745
0.533934211356239
0.425205698827931
0.338664943367748
0.270514039083123
0.259372500981318
0.0744046922947746
0.0944131946735588
0.104702995839012
0.106903810351699
0.0894809388994856
0.0771764295329578
0.0685238982815107
0.0613181842669973
0.0566320860449484
0.0548684086982396
0.0522929927941574
0.0518797759970311
0.0490696128398439
0.0458882140206488
0.0423739842114709
0.0398540869427049
0.036691941573583
0.0333065399559504
0.0313795894834242
0.0300088490364935
0.0301841365329183
0.0308970115166307
0.0322647612332733
0.0367008436467117
0.0393234110455538
0.0419157634671919
0.0456015870925093
0.0488019491158052
0.0518840024537055
0.0550303935046884
0.0577331568768752
0.0603708916068352
0.0636282916257247
0.0665134842875041
0.0691752980489212
0.0725474269850082
0.0734538057616687
0.0746653627908402
0.0762932652386473
0.0775367580253999
0.0794510808898178
0.0816945206090477
0.084901451262891
0.0877511782913358
0.0861203100486674
0.0859195869530773
0.0838618240148848
0.0836147674052176
0.0837225655308517
0.0820102573539622
0.0821849169770554
0.0827309938382755
0.0830889098559243
0.081052243888688
0.0788659564288245
0.0789156338050785
0.0787490731722695
0.0768491679998105
0.0751496122959384
0.0732147805368665
0.0720335667134805
0.0709189311381851
0.0703114833912214
0.0693768771566573
0.0685795645145508
0.0671856806417804
0.065754440160254
0.0644610754699213
0.0640695557530778
0.0633874386030071
0.0626205219764895
0.0613247188158146
0.0603065919687151
0.059480252079405
0.0589650475560388
0.0585662079478747
0.0584343883241715
0.0578728820859507
0.0571645814664241
0.0556936488436637
0.0545214367080797
0.0537418716502279
0.0527391943832893
0.0517456658670696
0.0517122772073411
0.0514042666190425
0.0513223693954726
0.054137136271572
0.0561399379148279
0.0580863947820741
0.0648971580037776
0.0745701584632826
0.0831840925821167
0.0933119867513192
0.104970358037094
0.120637667183134
0.134223459423006
0.141758315800851
0.15778401497491
0.168036842369664
0.183760765931988
0.19455913942822
0.217010343206342
0.223470999861666
0.244605781649092
0.261066074286926
0.277358919130838
0.337082269439916
0.36511739707862
0.356184144454901
0.333640573620368
0.313318663571019
0.248287260966152
0.292887110670678
0.500763683887073
0.555330535004529
0.386232364770367
0.304385775601284
0.231165639204425
0.303394974239554
0.0715693827839107
0.0649429626686256
0.0776960754856488
0.0792673383671448
0.0750781099357628
0.0657070940583927
0.0597265144766068
0.0521188090813826
0.0494033812831543
0.0474435830690169
0.0462638783791603
0.0450440033054013
0.0425935706960032
0.0382010557214745
0.0350948383339819
0.0320506525532701
0.028796006788611
0.0265282846249754
0.0247780830742254
0.0236585528127378
0.0235425679718621
0.0242826889825422
0.0256288846737635
0.0287552458989929
0.0302578577099456
0.0323039146053542
0.0352720512936735
0.0375338260505925
0.0399195862090354
0.0424091809519047
0.0447268275411042
0.0468431290163583
0.049496557150967
0.0519346848007408
0.0539422796095912
0.0569616920708837
0.0576945203126952
0.0586871995536906
0.0606113045473118
0.0621670985409718
0.0634972588592361
0.0649192100372351
0.0684911137048661
0.0707865336200482
0.0696194084108247
0.0698539669512869
0.0679475601549393
0.0677901588877337
0.0682025741312275
0.0671686956126653
0.0672433615173089
0.0673955998063251
0.0678284018190409
0.066783906487241
0.0650157990358754
0.0651792572410513
0.0648721385096726
0.0633181710361696
0.0618937095554262
0.0606737448753993
0.0594549841675422
0.0584001491994885
0.0579291176399275
0.0574008415114264
0.0567324140665791
0.0557897785991313
0.0547823896046674
0.0539713192440866
0.0537071829443617
0.0532317795798123
0.0524827428198377
0.0514209390633481
0.0509419401417873
0.0501135292777764
0.0493883106373249
0.0492716021760339
0.0496302596861389
0.0489673861616727
0.0488747193478227
0.0476073757696232
0.0467210735799235
0.0463043478038407
0.0458673990034118
0.0449093149392328
0.0447271104428267
0.0446559033533464
0.0450276760376599
0.0482211629135502
0.0501809950998035
0.0509945204409746
0.0562384015722019
0.0637031155774154
0.0725029231428144
0.0803197145137297
0.0906075825385286
0.101291402102003
0.113624096048992
0.122372634778949
0.133001119853776
0.145230165146668
0.15572629811184
0.166736349392478
0.178526649660405
0.19033757736853
0.204403824429972
0.233897442677799
0.245434344622174
0.284134415132762
0.276109673376515
0.323758293608954
0.291026981754328
0.263398205396796
0.20800263284513
0.222293050316924
0.346449984352061
0.459041437174255
0.32890493740935
0.268302921044625
0.196407919329928
0.305241492394019
0.0924443564676764
0.0483289840001307
0.0559698834634993
0.0631009029808243
0.0594505880408895
0.0568036305206549
0.0508069186392038
0.0479506350275935
0.0432747080868448
0.0415471637470341
0.040797301476469
0.0387659589589775
0.0368930779173429
0.0324669809506977
0.0293715431706215
0.0262882793716172
0.0231061895859832
0.0213960306941145
0.0199358018558266
0.0187314964407879
0.0186109453780541
0.0192985033231426
0.0206164038572772
0.0226249943531127
0.023648036395147
0.0252930671726805
0.0276173079543502
0.0294509647498633
0.0314608705740943
0.0334591030764603
0.0355336171491269
0.0370275501774783
0.0395687562130188
0.0413717728270369
0.0432199214214226
0.0454566049333588
0.0466911610535961
0.0474325950887925
0.0493536422177511
0.0511305836999986
0.051561589187407
0.0530525114382457
0.0566762847540166
0.0583723853544227
0.0578150947585884
0.0583159750267908
0.0564023095382493
0.0561677726021107
0.0569279092838371
0.0562800000504596
0.0558485618529977
0.0555655346814639
0.0563199125580861
0.0555373660530312
0.0544014066061589
0.0544860056081288
0.0544354492983057
0.0531864623526047
0.0518556572079237
0.0515487986030991
0.0500399040166408
0.0492144647513914
0.0488059348763415
0.0483557238705523
0.047740586831261
0.0470524877545742
0.0460621605523616
0.0457836126878562
0.0458071375660321
0.0453133726865219
0.0445222608735033
0.043812135486151
0.0436335859536994
0.0430791620375264
0.0421444534267858
0.0420469675071221
0.0426411919538001
0.0421318846641983
0.0421363742205821
0.0410834928274314
0.0404311244935725
0.0400311507617053
0.0400091922877675
0.0394392224887667
0.0392146130088121
0.0393235388447733
0.0398688111816314
0.0428852914064111
0.0450869322826434
0.045840772443716
0.0495739915013341
0.0555876475217894
0.062114569822774
0.0702965232897668
0.0793639090854369
0.0875841060960224
0.0987186100123436
0.107371817443054
0.117141839174498
0.127431232304985
0.133299839606521
0.145392860782936
0.153429663363724
0.165402192271987
0.193989967950417
0.200393924340789
0.223477638301419
0.228005605656357
0.249441545319088
0.255303001742386
0.269616163545487
0.214795738382285
0.175166475214391
0.181810868083129
0.251761794397455
0.34008494616464
0.266466803126144
0.233087831022313
0.168197435142615
0.272325998417223
0.13914902724831
0.038697771938026
0.041688338844211
0.049080636481486
0.0501645873358069
0.0480850519364343
0.0432100211788516
0.0404717450098102
0.0386564279654202
0.0371019112809087
0.0353015914645863
0.0329691331457757
0.0318740832486706
0.0270616364553734
0.0247014591915401
0.0218265746388937
0.018944245530876
0.0175437566404383
0.0162347543983196
0.0152259337692865
0.014925170991463
0.0154268487770689
0.0163951537312497
0.0178889558825405
0.0187217074330749
0.0201962465902185
0.0218073128423237
0.0230422406351569
0.0250167522255004
0.0268133362042809
0.0288043362242393
0.0297418135431999
0.0321909600838415
0.033751487408503
0.0354810982604254
0.0371123125036029
0.0385445512695564
0.0394203260684688
0.0409181843491387
0.0426010289096874
0.0427073142360707
0.0446014647945683
0.0472989391871357
0.0489340527431894
0.0488922661131258
0.0493658919674397
0.0477808753655241
0.0475930301712021
0.0480885268308046
0.0477267841389166
0.047355065792026
0.0465608242449402
0.0473380006502815
0.0468765883061222
0.04649907960824
0.0471015621041413
0.0463736388810716
0.0452760666965073
0.0442679138799055
0.0445617636756113
0.0427096311565195
0.0420259379096263
0.04157720383739
0.0413081003919788
0.0406078210779875
0.0400409574415526
0.0393204185056451
0.0392977163468498
0.0395190207092784
0.0388049424657149
0.0381674058818621
0.0378386220370848
0.0378047171638547
0.0374397853492206
0.036508947837882
0.0363859991505299
0.0370111264461237
0.0366692251985579
0.0365297911090628
0.0357965068790939
0.0351603877362046
0.0349752142846252
0.0352198984080956
0.0349241948465437
0.034716483683071
0.0350275784532889
0.0355498113058827
0.0380689463168194
0.0403453830162315
0.0411338650055899
0.0441047172566397
0.0487929289688415
0.0543336291862175
0.0614092715434517
0.0690085041140528
0.076561803182445
0.0867027395905698
0.0953850491832444
0.101469812040417
0.112272392678162
0.114416311148105
0.125296724415822
0.136309426745188
0.147380292749524
0.15951721330126
0.170086305486283
0.19890832239389
0.211044037904699
0.223864318038334
0.220869663251012
0.216663660103954
0.186027681167147
0.144679630063724
0.154505618418309
0.194859967739811
0.243824355397492
0.209091616037646
0.19988731449951
0.144483508426728
0.220627165821523
0.183808310284204
0.0342432481233923
0.0317574370177277
0.0376662520687972
0.0413317687526
0.0399472118013206
0.0382977989321846
0.0364298336060834
0.0343200747026918
0.0324281920035078
0.0310224239374184
0.0285237080589291
0.0280520254163905
0.0226597324467409
0.0208139539739034
0.0182278482019628
0.0159943822501405
0.0146018585749334
0.0132767819825602
0.0124001283074297
0.0121741495895642
0.0120702235888796
0.0127813584982978
0.0140284433888509
0.0147627135821635
0.0161152579913506
0.0170920440699885
0.0178752581342623
0.0202035698512073
0.0221180722393694
0.0238685982970013
0.0246591926786119
0.0266942243389881
0.0282466341011488
0.0298849381693474
0.0312677711599261
0.0324079425850521
0.0335686448715686
0.0343741171028043
0.0358770307940181
0.0362144158087049
0.0376997909300551
0.0398823306628076
0.0411437434761466
0.0417955003618655
0.0422904340581778
0.0409073957988386
0.0408644227283077
0.041226823126777
0.0408824147174169
0.0408767687350069
0.0397311365660598
0.0401014090499154
0.0402810461904722
0.0405067932182457
0.0403181315118487
0.0397459726951235
0.039117462246569
0.0388234833677475
0.038961016489048
0.0373748823727926
0.0366615113810207
0.0360824958213327
0.0356199685810045
0.0348438369806896
0.0343026953438113
0.0340749082304555
0.0342113792850917
0.0344921627252827
0.0340367089026656
0.0335466565494292
0.0331044736607153
0.0332278110158022
0.033094049865069
0.0324072298867329
0.032154691384697
0.0325488927798539
0.0322427063706523
0.0322296719635532
0.0317005891766704
0.0309636128274632
0.0310057840506291
0.0313491794490251
0.0313650808349654
0.0310302874397758
0.0312361683946954
0.0319468375599224
0.0339516520118828
0.0359021058197822
0.0365447974134772
0.0387361393795805
0.0429741320835196
0.0476981092435854
0.0539123803543035
0.0610019421702125
0.0680627759206647
0.075930042249032
0.0852193583178713
0.08826141966881
0.107772734728583
0.0982182991085408
0.113758081614581
0.117411530920677
0.12953995915952
0.144831148358511
0.158480070652097
0.168247350984375
0.185766543440326
0.185092230580545
0.200729319301665
0.178154669262472
0.155004621165981
0.121820809677161
0.129692970306818
0.158412527953144
0.179435551206532
0.162491202595175
0.169472190023832
0.124046087831212
0.169361755150827
0.230492209704904
0.0386968706282416
0.0246455844852386
0.0293420376947266
0.0338893088954831
0.0343296929606628
0.032921494292688
0.0320276266891002
0.030793654113269
0.0290181106502879
0.0271852379783674
0.0246926078512928
0.0227066270238656
0.0191204423953856
0.017655406164262
0.0151240162244681
0.0133008123453264
0.0122598843412032
0.0110286996534114
0.0100800115206443
0.00991772977732317
0.00973467503623633
0.0100046764738619
0.0109187479770514
0.0115586224898501
0.0126692152717483
0.0135959890835249
0.0144066909020495
0.0159915618319541
0.0185581358222445
0.0196945572197122
0.0204133718883379
0.0219815434939595
0.0230855936706278
0.0254908202643174
0.0258426419579741
0.0266941887836598
0.0279217062788509
0.0284460898146277
0.0303763522742015
0.0309902908992071
0.0314994360121875
0.0330665890106304
0.0346479412021961
0.0357061323557455
0.0359234878702735
0.0365825766635229
0.035496118731388
0.0355919636067759
0.0348773525826334
0.0359059487013232
0.0337933543707953
0.0340874479733365
0.0349631936647958
0.0351715403952008
0.0346309052810406
0.0341597362101032
0.0341057887070697
0.0347101137394568
0.0342137210899113
0.0331894006106458
0.0329948113548666
0.0318277866401643
0.0308382009629731
0.0300019483669707
0.0297259745959662
0.0295948154782336
0.0299736198649165
0.0303462687858466
0.0306020965256968
0.0302296005141943
0.0293072290308241
0.0298145798333871
0.0299783204127878
0.028763681945151
0.0280685417919206
0.028348140140212
0.0282937733112349
0.0277283412994298
0.0274982199417049
0.0272607788197316
0.0272135770525128
0.0275998248190592
0.0275463844227039
0.0279400720173944
0.0282129937019602
0.0285569909412106
0.0303025515291606
0.0319402955881331
0.0324465015376196
0.0345758512573126
0.0379597645104519
0.0423207758949269
0.0478217843074428
0.0540860859356212
0.0608240438613112
0.067776340257327
0.0759428493887483
0.0760289027542416
0.0884118791615889
0.0908195253749334
0.10404471350565
0.10031848849193
0.124308483748621
0.120032216374201
0.141291428446761
0.150741807579702
0.163746980741092
0.172248111888642
0.170846650341577
0.156858118333494
0.135345668736392
0.104532035085696
0.107609732576204
0.132321878654895
0.139898959283716
0.127179541061117
0.144565931646161
0.10646926340411
0.129883341492952
0.262661516704794
0.0471704195476737
0.0227093383373267
0.0229873442177304
0.0271844602657616
0.0295004029228732
0.0288155638266931
0.0286852174472991
0.0273934210870528
0.0256851208719125
0.0233757929026195
0.0215489813962374
0.0190093297211346
0.0175365127102465
0.0152162867910802
0.0127008212225604
0.0112054930467976
0.0103845078918286
0.0092204167288169
0.00842825880653526
0.00789076004598279
0.00766451959131052
0.00768841490263038
0.00845270207820486
0.00910202198327146
0.0100721950020617
0.0101132480126651
0.0112114445676555
0.0131437390249024
0.015486511769635
0.0161357622723219
0.0167189116200377
0.0182163819530239
0.0192855426814499
0.0211502330831643
0.0213173186975882
0.0219709260132608
0.0235435263429495
0.0231738589208323
0.0253289419463497
0.0263605202947279
0.0278104442181869
0.0284709794605313
0.0294440533000668
0.0307243308386454
0.0307615402899548
0.0308589834871318
0.03098193061235
0.0303619892284348
0.0296464101192926
0.0307552420530073
0.0291225984963926
0.0291434187537943
0.0302316086159957
0.0309280683904688
0.0298672328820451
0.0296396920605825
0.0302667147595142
0.0309300662038616
0.0297991700558824
0.0292312376360701
0.0291562528063844
0.0274180887551665
0.0265999997062816
0.0259016131448453
0.0258788525308404
0.0258940421033213
0.0255951664147583
0.0262675836363145
0.026371588772726
0.0265167625847269
0.0254966906088483
0.0261355791811063
0.0256821556336153
0.0257235632205737
0.024733695119543
0.0249582306694785
0.0248691386209101
0.0246281252193063
0.0242732107878752
0.0240122546314414
0.0235261612587613
0.0242310808019047
0.0248819070613004
0.0243264563623903
0.0246736548796849
0.0251047306194689
0.0265694721144357
0.0283040868496263
0.0292965150503781
0.0310576722944151
0.033764023800062
0.0375727013835544
0.0424825486371172
0.0485991748462487
0.0542064007157311
0.0593343006024951
0.0687285119058662
0.0740678178306473
0.0760206005012184
0.0836024320967775
0.0877471374392831
0.0940135198961602
0.108005153034006
0.110037233258851
0.136257785584124
0.125265629888592
0.159217560723476
0.145100898075503
0.151431579594672
0.135576777950455
0.120261624741514
0.0905049487800867
0.093044215612816
0.110019690012029
0.116254649477293
0.100932350195638
0.119910069962935
0.0978013512102239
0.105143148261393
0.270523795049217
0.0613381196307993
0.023193517047576
0.0186466702893989
0.0215405868835507
0.0251153912443678
0.025073712139206
0.0253416002965109
0.0241746934038347
0.0231096873427607
0.0208378869160989
0.0187043935010385
0.0163863314757255
0.0153015551810663
0.01242772207069
0.0102698026258551
0.00947300714015598
0.00883633527421302
0.00731051584123893
0.00687141678141427
0.00623170870968536
0.00601329419059304
0.00584971800783276
0.00655601089462094
0.00739178455571914
0.00798148403672293
0.0079918281755893
0.0092021057125729
0.0100902413284873
0.012661562134856
0.0136532886026055
0.0136098260679453
0.0146241970540592
0.0158729836103857
0.0168889508348666
0.0172845945202147
0.018026463230564
0.0196137362905423
0.0192424074198449
0.0218634977578585
0.0225569061786694
0.0236632282232962
0.0239927282620444
0.0254417487664516
0.0259006981114888
0.0264104396247522
0.0266354693693266
0.027356813465421
0.0263505778080247
0.0253064607042289
0.0268310215806731
0.0254158310796548
0.0248699496454872
0.026631105019332
0.0269473825653009
0.0259082318358321
0.0256940941653582
0.0268175070291034
0.0274034859475091
0.0263313099194587
0.025937329924647
0.0260941496555023
0.0243307357798555
0.023691408349669
0.0227800686040081
0.022639874110802
0.0227273251498185
0.0229853821249382
0.0234245237410722
0.023204770873692
0.0230968194445494
0.0227982879662325
0.023492956443156
0.0229463908628857
0.0234180892052252
0.0219269680801958
0.0219884929931888
0.0223025519480413
0.0212799859418951
0.021142930756646
0.0212485666550208
0.0209419628231187
0.02172852371699
0.021697786147585
0.0220481898870094
0.0220418261126832
0.0227403756785985
0.0237927519207836
0.0248290240953902
0.0263307274161701
0.0277568012760696
0.0301220301287653
0.0332181796350797
0.0376572447985615
0.0430687284788419
0.0483350357670445
0.050627554973266
0.0576495491874211
0.0665377328846464
0.0683000543840125
0.0752397581520066
0.0805115788821937
0.0858013299308702
0.0929234401935871
0.0987951935093676
0.111180307715954
0.115069565647209
0.133435539185385
0.129927946864768
0.127501743079106
0.118365773481482
0.0976255922274317
0.0839273304535166
0.0750948296481756
0.0931453899377603
0.10018881472206
0.0839495037446146
0.102798676178699
0.0882029837475222
0.0907755946791006
0.247099941693511
0.0863448522281621
0.0243795171943766
0.0154153349164513
0.0168336962978122
0.0213717476030839
0.0219273796013108
0.0227937548248329
0.022026568146918
0.0206913416970351
0.0184511209051459
0.016587904637776
0.0142330247920424
0.0133862270336503
0.0105588763361509
0.00925024473095982
0.0084179926584469