/*--------------------------------*- C++ -*----------------------------------*\
  =========                 |
  \\      /  F ield         | OpenFOAM: The Open Source CFD Toolbox
   \\    /   O peration     | Website:  https://openfoam.org
    \\  /    A nd           | Version:  7
     \\/     M anipulation  |
\*---------------------------------------------------------------------------*/
FoamFile
{
    version     2.0;
    format      ascii;
    class       volScalarField;
    location    "2000";
    object      nut;
}
// * * * * * * * * * * * * * * * * * * * * * * * * * * * * * * * * * * * * * //

dimensions      [0 2 -1 0 0 0 0];

internalField   nonuniform List<scalar> 
15600
(
1.85042565853503e-06
1.91814406455872e-06
6.11502755960125e-07
2.11667169994581e-07
2.93831548008128e-07
4.47964319739686e-07
4.13031738300621e-07
2.64558730927139e-07
2.76831648904931e-07
2.91298615587049e-07
2.09658198670696e-07
1.98600579460497e-07
2.97434929293789e-07
3.28456303801791e-07
3.15567341653187e-07
2.79143414711796e-07
3.37971628253721e-07
7.09875410659315e-07
8.67877905648058e-07
1.52150030711385e-06
1.92484722959605e-06
2.69121970232818e-06
3.3667261257801e-06
4.1937653123163e-06
4.65595752204987e-06
5.46980317969407e-06
5.58725387112303e-06
5.91849132447988e-06
6.0994576206645e-06
7.09832286270127e-06
7.51208990434077e-06
8.12667272577101e-06
8.76524095000523e-06
9.72734993696088e-06
1.03538014609302e-05
1.06377667378437e-05
1.06788705566064e-05
1.09715160854269e-05
1.12965706803244e-05
1.17327367582632e-05
1.15682454734472e-05
1.22339423156872e-05
1.17206340163821e-05
1.19849678901692e-05
1.18500482896065e-05
1.19104261177295e-05
1.24149471333829e-05
1.31941114666976e-05
1.18705975790655e-05
1.16882420645376e-05
1.20601387206082e-05
1.24858549479279e-05
1.1081718249659e-05
1.09108298274086e-05
1.0909435042766e-05
1.11885178039325e-05
1.16771505918349e-05
1.07875679325119e-05
1.12566333760718e-05
1.10877392555792e-05
1.09156817569121e-05
1.15601829543792e-05
1.07261949081392e-05
9.43544066420279e-06
1.02958257027651e-05
1.14309451202314e-05
1.13564547307384e-05
1.14588454008862e-05
8.27664145317477e-06
9.22051711909594e-06
1.05891821131391e-05
1.04120039287348e-05
7.47480874785636e-06
8.96837322027024e-06
1.00295461059772e-05
7.02205763138702e-06
8.93861297541558e-06
9.07136756675025e-06
7.94662276243818e-06
8.94621185144982e-06
8.15400247376204e-06
6.17526704296218e-06
8.44939899194377e-06
8.05962333116461e-06
6.96069252306063e-06
6.52224145267478e-06
6.67826455910263e-06
7.52728592136229e-06
5.85086578149885e-06
6.76432553257368e-06
5.56674280809192e-06
5.62173633284808e-06
7.21377251875162e-06
8.27904961612922e-06
8.95517454191393e-06
8.97901890070519e-06
8.5739294893416e-06
7.86172105023946e-06
6.91294544450521e-06
5.4866315755682e-06
4.83484210095918e-06
3.97199546231294e-06
2.61122955905303e-06
1.5490787705747e-06
1.1715891912587e-06
1.32014411535459e-06
1.35725644568798e-06
1.17851519307051e-06
7.38231308613559e-07
7.36095281280401e-07
9.75926019048368e-07
8.90000973962587e-07
7.8656122957207e-07
1.08567294275029e-06
1.14350187454204e-06
6.86038394307911e-07
4.08587105963514e-07
5.33402930405005e-07
8.19061740355268e-07
1.17032347043332e-06
3.55563729896215e-05
4.06008712241697e-05
2.48161513207571e-05
1.4017273167572e-05
1.16824441596196e-05
1.10237983171213e-05
1.07717454667822e-05
9.75415866628167e-06
9.41079354086935e-06
9.49300100481971e-06
9.34142600204157e-06
9.72465757719258e-06
1.04154599979887e-05
1.11904401341372e-05
1.23397320682472e-05
1.36734642025119e-05
1.52642202397968e-05
1.84972705313586e-05
2.18749344372525e-05
2.64080383967273e-05
3.16531099255913e-05
3.91765406265922e-05
4.66937988854463e-05
5.50109117180352e-05
6.31837114420212e-05
7.05909934730195e-05
7.49624030951276e-05
7.6930160462343e-05
8.35437555504475e-05
9.57591816326146e-05
0.00010513688860524
0.000114252871938129
0.000121360730460439
0.000128766437443457
0.000135022807503563
0.000140314821987017
0.000145512698155255
0.000150442640797467
0.000154838348364447
0.000156564724224643
0.000159534266849002
0.000160772855395153
0.0001627843537029
0.000163739136458294
0.000165788538556455
0.000167912025360167
0.000169716812180299
0.000171271153143619
0.000169928156283745
0.00016920413340745
0.000166714267103156
0.000166212623393713
0.00016507770010503
0.000162952578540495
0.000161513804605459
0.00016026166423662
0.000159284577821968
0.000156982318979318
0.000155015444963237
0.000153507066041714
0.000152248057611348
0.000150385490190385
0.000147574706140873
0.000144165002436313
0.000142844236099984
0.000141305963190188
0.000139893970326716
0.000138139998896096
0.00013423254870763
0.000131142901671802
0.000128826833875561
0.000126699556810885
0.000123992939563972
0.000122106593406681
0.000121156902726922
0.000118493288928048
0.000116091644550809
0.000114967765334329
0.000112467587686588
0.000111013589746727
0.000109221102188654
0.00010781065743833
0.00010605493156076
0.000103045895784258
9.98274888062438e-05
9.72721107211238e-05
9.47060198698401e-05
9.2401485089549e-05
9.02898969806758e-05
8.78171285820096e-05
8.48331517638058e-05
8.24925592493114e-05
8.83878754364263e-05
0.000100952307405365
0.000110507255192343
0.000112925994176321
0.000111537336615461
0.000106741162886713
9.9804945359692e-05
9.08087137677153e-05
8.43493399172574e-05
7.62100960996316e-05
7.00178330245983e-05
6.20251624421685e-05
5.76877681576581e-05
5.31529447062439e-05
4.87109569057996e-05
4.39239759870975e-05
3.99955797830688e-05
3.62054963946991e-05
3.56188207885616e-05
3.34516636371699e-05
3.22937662231455e-05
3.34576974038442e-05
3.28792285085564e-05
3.24471732264731e-05
2.8869095096894e-05
2.65496754430687e-05
2.20414047475005e-05
2.52441493121228e-05
0.00016321081423695
0.000186100412628698
0.000134688913764571
7.69594898244359e-05
5.55969824263845e-05
5.0203929008195e-05
4.4490758136609e-05
4.14097816246007e-05
4.06342362112222e-05
4.19980655295344e-05
4.40253246929715e-05
4.80034305363628e-05
5.2595618637002e-05
5.78036281766474e-05
6.4180133191918e-05
7.15616329337052e-05
7.82153446354704e-05
8.9828979596853e-05
0.00010045455017481
0.000115228281999197
0.000130864119276405
0.00015216776359321
0.000173263332450617
0.000195401551821271
0.000216324222474802
0.000232954497692157
0.000242068848107859
0.000250458066384929
0.000275548436456399
0.00030724090362756
0.000331253372014391
0.000352336241126612
0.000371978745789254
0.00039119496030653
0.000406553058724685
0.00042169905074938
0.000435439508066118
0.000446767210366008
0.000458864750301668
0.000465648346110567
0.000471158106025921
0.000479302885968256
0.000483529811362618
0.000489852321016157
0.000492482885660376
0.000501000668501737
0.000506916818242769
0.000508989693631292
0.000507385929884715
0.000509679572899569
0.000502792549315022
0.000499754995932809
0.000499982746629334
0.000493771681260993
0.000489969973119879
0.000488470950066003
0.000486313318935066
0.000481872743510672
0.000477922009887178
0.000474305758221574
0.000472220885310096
0.000468422780194862
0.000462503359841216
0.000454445556673464
0.000450682580578034
0.00044694313637799
0.000444037483802401
0.000440521101181142
0.00043239932884283
0.000426490818211785
0.000421416924820012
0.000413980175655392
0.000407576195972682
0.000404604096215088
0.000401362712690753
0.000394668216326771
0.000390231338534681
0.00038637898376522
0.000381946207133615
0.00037613051983732
0.000373216936261646
0.000368673338818039
0.000364139519035058
0.000358620798024741
0.000351177597181905
0.000344199163601239
0.000337752441027423
0.000330990576225674
0.000325200806262893
0.000318776897128142
0.000309449267292432
0.000300203055259849
0.000304587248231336
0.000334589605970491
0.000362129480784765
0.000377429579940581
0.000379257715266597
0.000372343775969783
0.000359241292542499
0.000338050585739083
0.0003267894051432
0.00030818602061888
0.000294102802077614
0.000271935802202419
0.000261494859558321
0.000246144483684667
0.000229146867081532
0.000209362604671669
0.000192450994547519
0.000171960339022486
0.000160655841081139
0.000150178698180487
0.000144207249981964
0.000149633934271635
0.00016020350099474
0.000172018569997291
0.00015605207066491
0.000134051595297263
0.000120093470450916
0.000132705951556691
0.00037137091133718
0.000423005264859626
0.000339228347521061
0.000213363538471217
0.000143097173657858
0.000131460101709833
0.000120507437103638
0.000111662550682099
0.0001096240069295
0.000113658333130522
0.000118674925102787
0.000128491351995204
0.00013885126516648
0.000151317498321053
0.000166463972014726
0.000182490325670952
0.000195826830650982
0.000216239610871014
0.000235843544555454
0.000262338196521356
0.000288906235250475
0.000325778471399151
0.000362163698246344
0.000400061541081712
0.00043471043068082
0.000460685599666036
0.000473135272311595
0.000488066998258577
0.000536563418628116
0.000592935899415222
0.000635433535058804
0.000674728113413596
0.000710723213000948
0.000744504342552604
0.000772443470093988
0.000799580465119086
0.000824207378813967
0.000844409559582868
0.000863936380534515
0.000875023380612678
0.000887147865190131
0.000902872867717533
0.000912513549785967
0.000922439009260051
0.000926033684809739
0.000941114813618731
0.000949089306811291
0.00095290867309542
0.000951777868695911
0.000956728472548137
0.000945534610191073
0.000941014799675351
0.000944139552914729
0.000932733961744691
0.000924650096054879
0.000922332080057711
0.000918465759878383
0.000913823288113808
0.000908557854181802
0.000902568132336486
0.000899503613448239
0.000894214777425847
0.000885694461944595
0.000873548149094572
0.00086643528768217
0.000860133058221401
0.000855415144969415
0.000849880248863683
0.000837803727573572
0.000828581700419427
0.000820560672880276
0.000808320769557582
0.000798069225355866
0.000792723280982306
0.000787719287411358
0.000777376054443675
0.000770719607297968
0.000764241585293735
0.000756424473153164
0.000746280549526808
0.000740884022485284
0.000732995100235147
0.000726772595541571
0.000718029708304652
0.000705466406433193
0.000693344609576848
0.000682742182974122
0.00067091595913335
0.000659717952604663
0.000647584852409133
0.000630559019643753
0.00061060431605768
0.00060886971266484
0.000656655029572183
0.000703884320425988
0.000732985227860328
0.000741023125447503
0.000735884748508438
0.000721193158128947
0.000691371434537223
0.000678978158647302
0.00065149865274301
0.000629169502009793
0.000596614026955887
0.000578460876915452
0.000551512953530206
0.000521904762919316
0.000488457354619525
0.00046102533023073
0.000429889153548647
0.000408025925528256
0.000393696832996918
0.000386008491504484
0.000406970536776358
0.000424943118925537
0.000441240500388411
0.000386152290218441
0.000297524988563197
0.00027439492142483
0.000313086830934571
0.000576677908546902
0.000667964380188429
0.000576765199845492
0.000402476601105414
0.000275970190393358
0.000250603589192937
0.000237992809225229
0.000223970903200334
0.000220117579175597
0.000223202341294722
0.000232083237327146
0.000247039270299484
0.000262786810729511
0.000281973323690123
0.000304391310233103
0.000327150978381437
0.000347227094982036
0.000373002822461365
0.000401976051634572
0.000440722266670746
0.000480654915247252
0.000535525303431724
0.000586847504091294
0.000641304552424807
0.00068948791965172
0.000723152275047916
0.000738011425669929
0.000762832961717443
0.00084004245701381
0.000927541438505913
0.000994938926002563
0.00105727920185831
0.00111394030982929
0.00116642762463568
0.00121017430239164
0.0012506142260257
0.00128737169150872
0.00131638632296683
0.00134382046119571
0.00135911851542544
0.00137904461987652
0.00140417264517787
0.00141917825226139
0.00143255275827941
0.00143639538063935
0.0014560813594492
0.00146518456719098
0.00146966427233226
0.00147031632384431
0.00147841583212992
0.00146338664564071
0.00145704447979654
0.00146248766288816
0.00144578055577107
0.00143116612324239
0.00142588173145019
0.0014197613913489
0.00141639129934112
0.0014104062320262
0.00140178375149569
0.00139671026845818
0.00139006920149922
0.00137926241408673
0.00136409882104674
0.00135272359359742
0.00134339949593923
0.00133601822003282
0.00132772054671425
0.00131125482871948
0.00129826631972841
0.00128640624909058
0.00126932526457046
0.00125516180266919
0.00124635142017041
0.00123845566723335
0.00122426227032926
0.00121464277061281
0.0012047534093361
0.00119241860908422
0.00117653045969979
0.00116745579502103
0.00115567345330491
0.00114591093933379
0.00113318293893532
0.00111532279152853
0.00109736624699485
0.00108150032865339
0.00106224971868423
0.00104344391066561
0.00102413732113259
0.000997695747434862
0.000964362169994743
0.00095333018738361
0.00101554331893875
0.0010836787115752
0.00112930630714486
0.00114656737511961
0.00114659152015817
0.00113550114835206
0.00109994342679452
0.00108516015217926
0.00105135659228917
0.0010211142373157
0.000986290854356004
0.000955823899190871
0.00091799122441456
0.000877429818989337
0.000832752222361435
0.000795440090503479
0.000761836519714541
0.000740273856731988
0.00072803501694714
0.000726432773357109
0.000756785700694706
0.000773736884835032
0.000800167156399018
0.000698507599382592
0.000502364057872664
0.000431094906395953
0.000489068580670092
0.000749296336626895
0.000880726277837298
0.000807821467408758
0.000604903309808384
0.000441222049479865
0.000404830536219425
0.000387234694087785
0.00036410857738418
0.000355920102838985
0.000358016688267786
0.000370645848599183
0.000388362472302636
0.000407036824503741
0.00043088610981248
0.000457134271113856
0.00048446267426245
0.00051119559955948
0.000543099630669002
0.000584171351504275
0.00063751825065043
0.000695055689199149
0.000768396789216792
0.000837431411042937
0.000908570329848202
0.00096890581409282
0.00100941352914907
0.00102964874787948
0.00107075716931761
0.00118399039606093
0.00130888972071773
0.00140643143966794
0.00149660067980723
0.00157809968448308
0.00165278047526237
0.00171503399511199
0.0017698110892784
0.00182002458189025
0.00185843479272059
0.00189361210383513
0.00191310901918564
0.00194142588748701
0.0019763640609929
0.00199656018131962
0.00201335367386123
0.00201643693098036
0.00203807608269768
0.00204713321432653
0.00205104376401364
0.00205483114271071
0.00206613457559761
0.00204816758752246
0.00203933267306107
0.00204511462820052
0.00202335039408903
0.0020006984806702
0.00199007091003382
0.00198097674110833
0.0019790154710351
0.00197239542001713
0.00196045359302432
0.00195235444797509
0.00194436974769772
0.00193152638938911
0.00191392091837819
0.00189760821474663
0.0018850022061931
0.00187402321961923
0.00186197972494419
0.00184043384905075
0.00182245976634177
0.00180555960617255
0.00178341137413076
0.00176480198321342
0.00175117340170646
0.00173873773656057
0.0017199256364332
0.00170719606583968
0.00169296804111537
0.00167488046236906
0.00165216935475895
0.00163749485201019
0.00162041213219955
0.00160553017499486
0.00158731223325694
0.00156322513693313
0.00153814158209125
0.00151579189743684
0.00148763688324678
0.00145886737444845
0.00142988504593445
0.00139194199061039
0.00134274717136654
0.00131864677216667
0.00139062539034903
0.00148036267819628
0.00154656342225343
0.00157691646876308
0.0015854727561517
0.00157850835096383
0.00154475948803522
0.00152690597690064
0.00149044579586956
0.00145291867048542
0.00141786226735518
0.00137406733193817
0.00132567308476551
0.00127376225477549
0.00121876241152232
0.00117032497409582
0.00113603151226892
0.00110594038276691
0.00110574628766441
0.00110983836767183
0.0011507963412009
0.00118182883131052
0.00122316676044082
0.00108091111792776
0.000772913623019738
0.000587753036791657
0.000642942262973509
0.00090098120573657
0.00106106886040434
0.00102086314485397
0.0008013554197962
0.000615196619597548
0.000584664112718504
0.00056670873715518
0.000527963784106385
0.000511430331106557
0.000509551913845379
0.000521092671575952
0.000539098032819481
0.000557058038970159
0.000583022466972829
0.000613168499242794
0.000646104526254485
0.000681818374978096
0.000724320614929714
0.000780988615069071
0.000851985977395356
0.000930732049315563
0.00102251436111134
0.00111066998614675
0.00119826614880587
0.00126965841772133
0.0013186279793826
0.00135014160237109
0.00141557347959754
0.00157187780939318
0.00173908442268801
0.00187103225217182
0.00199318786541356
0.00210328444541704
0.00220351280802317
0.00228637552699425
0.00235641276191505
0.00242092969562186
0.00246958538747217
0.00251294557265104
0.00253629321758872
0.0025730986530585
0.00261782781893936
0.00264244534803707
0.00266268736166587
0.0026642893676496
0.00268582308213456
0.00269308075213381
0.0026955832045114
0.00270313979950534
0.00271699281895394
0.00269751847149444
0.00268548000728611
0.00268917424317373
0.00266213166887358
0.00263100200643334
0.00261335691221086
0.00260032996002721
0.00259883643922339
0.00259105736110306
0.0025748942745228
0.00256310285238067
0.00255371603106823
0.00253906194206014
0.002518703026814
0.00249705508927835
0.00248102267494717
0.0024654893278652
0.00244856934611192
0.00242148507011881
0.0023972598077245
0.0023742229213641
0.00234643712244413
0.00232254284862025
0.00230258008075711
0.00228410207794863
0.00225956232529898
0.0022433060622958
0.00222376622641175
0.00219914356995553
0.00216840816763543
0.00214603297663454
0.00212225031203098
0.00210033647462596
0.00207508036367759
0.00204365628241935
0.00200998624806245
0.00197963505454825
0.00194144677118563
0.00190088906400568
0.00185989827025401
0.00180816449826664
0.0017405678673346
0.00169987364505399
0.00177574387006598
0.00188585263965771
0.00197482896095646
0.00202309827128672
0.00204361343374492
0.00204421426683658
0.00201746711806301
0.00199720863037934
0.00196104269511318
0.00191875979142834
0.00188386303123872
0.00182684949102853
0.0017686857329127
0.00170243135784541
0.00163993376532985
0.00157950657240866
0.00154286964232041
0.00150893184202512
0.00151588451203466
0.00152998315076816
0.00158614780113322
0.00163876520888656
0.00169648395173532
0.00151878507786758
0.00111989938078585
0.000775254374548755
0.000790807262167965
0.00105122080884675
0.00122391806775657
0.00121556750992862
0.00098848946649537
0.000782536612568032
0.000773979287539028
0.000773246173768181
0.000720258185823109
0.000688526223344416
0.000678223287629293
0.000683523880801961
0.000699726551489953
0.000714806081303279
0.000740939429474525
0.000774107874045908
0.000814046720472666
0.00086088519212855
0.000917684289718878
0.000992491929385797
0.00108409329768327
0.00118648404935942
0.00129696929298355
0.00140567173471363
0.00150982264759066
0.00159303472092159
0.00165384918954528
0.00170367745433556
0.00180206277155124
0.00200729924728416
0.00222048958588694
0.00239038489502425
0.00254792235377203
0.00268974650788357
0.00281855890919069
0.00292374597864876
0.00300986875331007
0.00308928413541084
0.00314917617946729
0.00320155459469194
0.00322851822903599
0.00327322924054627
0.00332771030076963
0.0033557764061145
0.00337913858128131
0.00337925912938334
0.00339897070391931
0.00340268959389684
0.00340312174206736
0.0034142916262202
0.00342958342510043
0.00341018367993591
0.00339448608284265
0.00339367596539605
0.0033607726400027
0.00332125599147038
0.00329583995231999
0.00327795992920354
0.0032754963703806
0.00326547369376838
0.00324415035991884
0.00322829285345074
0.00321728575658963
0.00320081028488638
0.00317675960356577
0.00314954396164751
0.00312996824730941
0.00310886998240363
0.0030859576186826
0.00305329036497452
0.00302181414528983
0.00299170228285685
0.0029573473187745
0.00292725310445639
0.00289948487973039
0.00287372385069568
0.0028421847125873
0.0028215626471526
0.00279562368428009
0.00276391985048842
0.00272394081516079
0.00269190624536596
0.00266015289819816
0.00262919312971148
0.00259556840918343
0.00255563019909852
0.0025120025931446
0.00247193231251152
0.00242258634587592
0.00236852596156603
0.00231348151136025
0.00224595017796793
0.00215758772868232
0.0020970175273452
0.00217075518877605
0.00229805689744558
0.00241078145388604
0.00248062556092094
0.00251663880969781
0.00252830553954284
0.00251377457319933
0.00249353781606731
0.00245962184912456
0.00241545086407623
0.00238088556968228
0.00231197296209263
0.00224498540691792
0.00216395779821644
0.00209481251585372
0.00202126864479577
0.00198067292822114
0.00194505650579678
0.0019595859614195
0.00198843984949464
0.00205949305266992
0.00213767159146853
0.00221299143729101
0.00200301524284688
0.00153474771869874
0.00102042958018209
0.000954182794804721
0.00121632958718859
0.00138618550905479
0.00139740133311635
0.00116794672809855
0.000940887104200339
0.000954081042843135
0.000998465597143614
0.000940547541407444
0.000889743095487072
0.000864775251964182
0.000858715196392007
0.000868441372413106
0.000879360141835335
0.000904420745790205
0.000940654315443665
0.000989479718400343
0.00104979246844449
0.00112373531818208
0.00121949015659545
0.00133431385057444
0.00146213089682108
0.00159244218637769
0.00172296604025831
0.00184452002306471
0.00194207933202456
0.00201946766762781
0.00209474458952715
0.00223437438608537
0.00249291393212684
0.00275474518674183
0.00296555370647367
0.00316106216763283
0.00333675371773882
0.00349691532964829
0.00362581229207478
0.0037290212603711
0.00382346523948234
0.00389577680288371
0.0039580159638068
0.00398900756226281
0.00404031491815506
0.00410428637562453
0.00413521654039116
0.00416117976621065
0.00416034285764543
0.00417657846159463
0.00417559780842084
0.00417328291057716
0.0041873065113649
0.00420269071496895
0.0041847768625174
0.00416521111795222
0.00415787563840244
0.00411859830150657
0.00407101106264676
0.00403774405116268
0.00401413917057739
0.00400921722902469
0.0039953819380768
0.00396799514890317
0.0039479076583115
0.00393488872918008
0.00391615449917929
0.00388711367687557
0.00385429730266895
0.00383085780909951
0.00380328458515951
0.00377345584658621
0.00373556022827362
0.00369612727719121
0.00365821896137855
0.00361615553158403
0.00357889470597822
0.0035420125055051
0.0035078082402814
0.00346790548876089
0.0034418646614798
0.00340824239454815
0.00336890799648707
0.00331852857321837
0.00327528906098382
0.00323436204409548
0.00319264461777755
0.00314940048143976
0.00309982546127594
0.003044985562904
0.00299345270439317
0.00293166227768796
0.00286239611560892
0.00279130101215681
0.00270627721374895
0.00259546855745281
0.00251216283219915
0.00257794726336929
0.00271814008132323
0.00285386553154777
0.00294844934605647
0.0030025215147197
0.00302922292417317
0.00303060393561995
0.003013916660609
0.00298447344262931
0.00294101049214018
0.00290709511178496
0.0028286609876009
0.00275362015717531
0.00265813172590925
0.00258273133689532
0.00249352960634367
0.0024511976896102
0.00241260923150847
0.0024387102475143
0.00248151917091023
0.00257223294161938
0.00267506333540309
0.00277015499681015
0.00252980684711552
0.00200453159562034
0.0013349607028795
0.00115305158489239
0.00140967373935289
0.0015626078939309
0.00157527129113838
0.00134265010699088
0.00109264615468277
0.00111288295508311
0.00122819299782762
0.00118603217585845
0.00111489283381812
0.00106992928436424
0.00104708886668125
0.00104631075106379
0.00105106156351695
0.00107446637753444
0.00111500114457909
0.0011745147269784
0.00125100023959479
0.00134435495944606
0.00146357129746042
0.00160367873024032
0.00175834191971936
0.00191018429453132
0.00206371671004545
0.0022042066251293
0.00232016576381921
0.0024198662859541
0.00252763660642854
0.00271556204381505
0.00303061428044427
0.00334267955321856
0.00359681200750012
0.00383239573135375
0.00404296137393145
0.0042366536715607
0.00439040364685284
0.0045118218992044
0.00462122756359516
0.00470697326324203
0.00477981081829309
0.00481576736858018
0.0048724095551391
0.00494508625895548
0.00497889161764602
0.00500690735550275
0.00500558033314702
0.0050171379586109
0.0050111425514358
0.00500522158665926
0.00502097700502376
0.00503509198728626
0.00501945520547225
0.00499598129049727
0.00498078992991511
0.00493487620685124
0.0048793610927215
0.00483862632840411
0.00480867540814813
0.00479970278474103
0.00478028865110873
0.00474611487726195
0.00472199975609476
0.0047062590934785
0.00468418655977462
0.00464909523746159
0.00461059020671327
0.00458274721821582
0.0045479857013051
0.00451056986934056
0.00446815226967119
0.00442034223081942
0.00437386441164134
0.00432301947523747
0.0042777013679026
0.00423046825411908
0.00418656700238416
0.00413716762710955
0.00410452922945991
0.00406181638056807
0.00401413747239686
0.00395232353628997
0.00389685257830399
0.00384568660653891
0.0037918556275686
0.00373778266966212
0.0036776115250218
0.00361014795777447
0.00354561305688044
0.00347002688443025
0.00338390909856606
0.00329483575873929
0.0031908450701563
0.00305657475549811
0.00294828453832485
0.00300114161745135
0.00314916990006197
0.00330560013927135
0.00342655131711053
0.00350104698977102
0.00354691941171796
0.00356659240281068
0.00355737423236095
0.00353489411102866
0.00349519451778162
0.00346150978411907
0.00337674878506015
0.00329410667426567
0.00318522749926072
0.00310304232668364
0.00299854060172007
0.00295529049892302
0.00291270101723412
0.00295261227353081
0.00300890020055962
0.00312294040066228
0.00325186321472818
0.0033651178555321
0.00309747352792795
0.0025200330944471
0.00171851828760357
0.00140323599873882
0.00164226754314612
0.001764934702175
0.00175943337376375
0.00151618823046036
0.00124252168830425
0.00124818782204476
0.00144616191305239
0.00145118684471062
0.00136478348451833
0.00129548240330001
0.00125002426045524
0.0012345941023005
0.00123180327465432
0.00125345558247123
0.00129953287234515
0.00137159488823388
0.00146663147342225
0.00158131044988999
0.00172674766010815
0.00189376859995299
0.00207620780334425
0.0022515958928115
0.00242939807352238
0.00259122887966528
0.00273030636840018
0.00285868055964521
0.003005682423706
0.00324760095234291
0.0036216175802188
0.00398452503631064
0.00428346180074451
0.00456064746614521
0.00480647685696965
0.00503480772694808
0.00521468755201044
0.00535524846524732
0.00547963493699172
0.00557969254662927
0.00566352549414854
0.00570582070768565
0.00576698343483704
0.00584705524062129
0.0058842093149295
0.00591366955410308
0.00591200599078378
0.00591865243425654
0.00590781880749396
0.00589744391546383
0.00591359202775092
0.00592518384464706
0.00591181374956302
0.00588458251733475
0.0058607946266189
0.00580842301696947
0.00574489589237124
0.0056972881758839
0.00566061567815356
0.00564591007089954
0.00561945391115283
0.00557845818621986
0.00555030489859445
0.00553065282159871
0.00550360772514418
0.00546211835894908
0.00541737434840571
0.00538436362449183
0.00534203103941606
0.00529672379166502
0.00525065627069167
0.00519415417637152
0.00513836179794493
0.00507789003378289
0.00502376865350375
0.00496471888571105
0.00490991224827536
0.00485051670869566
0.00480982353175932
0.00475658673669998
0.00469972730047154
0.0046258113541155
0.00455749609532388
0.00449517504039157
0.00442821071154014
0.00436222586551097
0.00429049439176686
0.00420896788423438
0.00413016412728804
0.00403938109692149
0.00393487509777805
0.00382610303730583
0.00370184405564988
0.00354344703597263
0.00340867022648962
0.0034446014122873
0.00359510879561013
0.0037687396009141
0.00391601078513758
0.00401305862315222
0.00408145744319672
0.00412125584912157
0.00412372917720961
0.00411096909804616
0.00407761749521072
0.00404362244645751
0.00395687272525166
0.00386519455628803
0.00374673537432764
0.00365536091832034
0.00353716794190962
0.00349242168431428
0.00344758494721457
0.00350192941252639
0.00357165733700545
0.00371079165278717
0.00386773020935851
0.00399566893482486
0.00370403527241979
0.00307668319873958
0.00216429349924984
0.00171455728196298
0.00192264882504044
0.00200231753976789
0.00195991403942095
0.0016929728735513
0.00139325988857303
0.00136533641791149
0.00163730403321368
0.00172616059025764
0.00163924069243965
0.00154314966211422
0.00147045719949449
0.00143606262409636
0.00142411947948599
0.00144391165321671
0.00149706244515497
0.00158348300474292
0.00169947173238409
0.00183716828932241
0.00201105841983426
0.00220646102584758
0.00241740333066708
0.00261841048621614
0.00282167299695604
0.00300810736255264
0.00317526032135869
0.00333800650138078
0.00353077069545304
0.00383110739573439
0.00426596848948773
0.0046796337531053
0.00502407235911799
0.00534330870512158
0.00562489925584251
0.00588774689125287
0.00609521504345883
0.00625566407565684
0.00639492004951086
0.0065102181713436
0.00660501694088624
0.00665544501042598
0.00672068577938153
0.00680652841111227
0.00684768680648116
0.00687787475910694
0.00687585614461093
0.00687801106823511
0.00686308229679728
0.0068473982609644
0.00686258127811947
0.00687076365797299
0.00685882197083998
0.00682806650306557
0.00679554992966211
0.00673722466714065
0.0066655964471927
0.00661176164660349
0.00656806410875749
0.00654610452567577
0.00651178796849805
0.00646425577813845
0.00643190631198286
0.00640674038619514
0.0063730169240515
0.0063254321933593
0.00627343615364614
0.00623433278972449
0.00618446078796265
0.00613107997252255
0.00608216199507374
0.00601667749328511
0.00595107039481894
0.00588045482069133
0.00581684923577176
0.00574459072635449
0.0056779190770187
0.00560850795414229
0.00555787457792198
0.00549300891614808
0.00542604214569235
0.0053398442777681
0.00525824759466733
0.00518384906671742
0.00510328891815445
0.00502438853268793
0.00493993360918968
0.00484333840196644
0.0047489770753378
0.00464176801819753
0.00451743843611379
0.00438752276330588
0.00424196713714481
0.00405873251815162
0.00389656696956428
0.00391221108446582
0.00405963389872725
0.00424677724802089
0.00441868435853657
0.00453994261958941
0.00463338794421687
0.00469480444145879
0.004713135865426
0.00471348566744712
0.00468841591802441
0.00465580779637761
0.00456862501820427
0.00446700950791231
0.00434376682440687
0.00423903021725128
0.00411217289396529
0.00406290052929243
0.00401871105864909
0.00408704847787538
0.00416931710807992
0.00433683322742707
0.00452075434407227
0.00465943015014594
0.00434731083575248
0.00367210307339117
0.00266424623744248
0.00209031454060571
0.00225669842846724
0.00228149588201952
0.00218633944288757