/*--------------------------------*- C++ -*----------------------------------*\
  =========                 |
  \\      /  F ield         | OpenFOAM: The Open Source CFD Toolbox
   \\    /   O peration     | Website:  https://openfoam.org
    \\  /    A nd           | Version:  7
     \\/     M anipulation  |
\*---------------------------------------------------------------------------*/
FoamFile
{
    version     2.0;
    format      ascii;
    class       volScalarField;
    location    "2000";
    object      omega;
}
// * * * * * * * * * * * * * * * * * * * * * * * * * * * * * * * * * * * * * //

dimensions      [0 0 -1 0 0 0 0];

internalField   nonuniform List<scalar> 
15600
(
1974.60613735576
1972.648325243
1984.42791022013
2055.78059759582
2222.67690004102
2356.686868098
2378.42128442444
2300.00018532342
2153.97031116953
1966.45861756929
1762.78479607635
1583.64547894744
1435.67966376577
1312.2349065017
1208.29531934702
1120.03744959636
1041.43040276847
963.351277377799
885.918292649371
810.58135114486
738.629427726828
671.777660481123
614.580438156229
568.667823075621
533.493089366932
508.868650769501
494.93483283514
492.061840314983
493.651539705996
493.651534338166
493.651534338173
493.651534338186
493.651534338214
493.651534338152
493.651534338164
493.651534338193
493.651534338173
493.651534338179
493.651534338187
493.651534338166
493.651534338199
493.651534338138
493.651534338171
493.651534338152
493.651534338165
493.651534338172
493.651534338187
493.651534338193
493.6515343382
493.651534338166
493.651534338172
493.651534338165
493.6515343382
493.651534338165
493.651534338146
493.651534338186
493.65153433818
493.651534338194
493.651534338178
493.651534338193
493.6515343382
493.651534338185
493.651534338193
493.651534338201
493.65153433813
493.651534338152
493.651534338177
493.651534338139
493.651534338172
493.65153433818
493.651534338191
493.651534338182
493.65153433818
493.651534338178
493.651534338194
493.651534338178
493.651534338152
493.651534338152
493.651534338159
493.651534338193
493.651534338166
493.651534338166
493.651534338171
493.651534338213
493.651534338157
493.651534338194
493.65153433817
493.651534338157
493.651534338187
493.651534338165
493.651534338165
493.651539706002
492.061840314982
494.934832835202
508.868650769232
533.493089366357
568.667823075228
614.580438156834
671.777660481449
738.629427726959
810.581351143299
885.918292648864
963.351277377646
1041.43040276902
1120.03744959597
1208.2953193011
1312.23490651725
1435.67966381516
1583.6454790092
1762.78479592733
1966.45861764716
2153.97031128258
2300.00018510395
2378.42128451691
2356.68686814436
2222.67690004416
2055.78059756207
1984.42791022399
1972.64832524326
1974.60613735531
484.009665704406
476.1391870385
499.166888212582
521.581848566003
572.724684514878
608.528976790688
629.672728304475
609.921615727625
569.389082290263
517.243243812381
458.978243856558
407.643649611316
366.375325288872
332.616754123662
305.248395790818
283.199940768151
264.392371219709
244.837058888545
227.188697674914
207.9330863884
192.476789778693
173.826650309236
159.788429160404
148.29304740144
139.871777669483
134.727871286583
133.17619948732
136.821746420672
138.863902868888
136.7542841593
136.201742945239
136.32475743205
135.676076956161
134.939241997536
134.736914406085
134.571295387633
134.753073441274
135.22059299949
135.064184939535
134.922836963309
135.478428303492
134.516134141787
134.891827141613
134.175036353567
134.790265828444
134.310840234165
134.021713735402
134.4584300041
134.470652171773
133.604920137656
133.494988395264
133.792946537692
133.464316667803
133.54763397785
133.548543564453
133.092037242629
132.922095979888
132.746962117609
132.263101968148
132.26221162821
132.035961284066
131.522039911373
131.396268728837
131.526008639917
131.209136591207
130.682406167782
130.438339739426
130.038260546916
130.457271432575
129.561731979619
128.800241265556
129.153925068876
129.827558352227
128.818562301855
128.515266354436
129.222920123487
128.163258508888
128.156762067929
127.971897364394
127.985779587349
127.683458114053
128.535570122018
127.534255152532
126.987573721132
127.356455160426
127.603706616928
127.441849329793
127.627441280231
128.417024170159
128.097938601949
129.351520913256
131.324898076307
131.426627171521
130.140338115298
133.295019421905
137.760776342736
145.65719341628
155.725396801107
168.353290365987
184.968597503582
199.025293258854
215.093677357414
232.633300383217
250.565090538693
267.302838654637
285.828406733568
311.645502968942
343.309073472168
380.380940679279
431.860527626735
483.296377838395
536.413600113657
579.432590527303
587.396684515444
584.292944625746
558.738335661857
560.726771652888
563.762721509985
516.828428217463
487.711512679506
201.76501738625
196.339938163219
203.938910660115
211.486594109967
236.730445842997
246.356335583565
248.38571174659
243.938534206858
228.638800134386
207.724238863595
186.423061478584
166.674912862505
150.91757257361
137.492940120069
126.161285133671
117.586871878486
110.010124174987
102.924756253175
95.6867712261458
88.3240342704
82.2516759600263
75.1312839096262
69.8153706884991
65.5099178716078
62.5153449423205
60.6656616422503
60.8647387948964
62.6825641303629
63.3014707122414
62.7508919019131
62.9983169118643
63.1263702494966
63.1432231955422
63.2607527881836
63.3976828987115
63.4208228923374
63.5496153150175
63.7172523417366
63.8261538077629
64.1671975930555
64.138712265113
63.8174844602726
63.7705424656902
63.7574981336245
64.0311093477162
63.8940233411044
64.1159215934191
64.3478503704062
64.2473532725922
63.898490153993
63.7836603662775
63.7885927049434
63.4120254799334
63.4617954133722
63.5845365827659
63.3680170254197
63.3383667635642
62.9932939495028
62.6347400463244
62.6455313664179
62.5056715716476
62.1498680321819
61.9611660070806
61.8803615552862
61.7249093577006
61.447750876981
61.271172151635
61.0137212894655
61.0262296990722
60.6104470521006
60.2174509676416
60.2004934791508
60.382905433119
60.0476796734222
59.7605749687454
59.786580984156
59.4002360064294
59.2674516586423
59.2390952978596
59.1706091142184
59.0701156443735
59.2426434378737
58.6952705963621
58.3288107383766
58.3199128975244
58.2980719368022
58.0919963715922
58.0023154497426
58.2513136463319
58.135674192048
58.4522440295476
59.5199415807937
60.2694803472907
60.0823112854856
61.5854549007471
63.9965942736439
67.4608986209993
71.5382344986915
76.5344351404323
83.4483508651831
88.4604791588408
94.6500277715579
101.951834448869
108.368529500692
115.285399537375
121.741032814916
131.3573135209
142.405733947379
153.556568701138
168.071470976342
184.455457725173
200.03274660698
214.358073450958
211.286489522193
217.306604559991
215.967819006456
227.186965942778
255.54890537449
236.496094033075
207.198058112274
127.599096892576
120.009324073226
123.260176388262
121.490708790074
126.572225587258
131.178586435053
129.263394687263
125.804591067965
117.916509739275
109.455656002123
98.7435587400092
89.4113523543065
81.917722477337
75.5578626824736
70.2432751971454
66.4174905155826
62.4043608813151
59.1357455190791
55.1206756530114
51.1708394888888
47.6083872731203
43.5397254136835
40.8446157851752
38.5693398538379
37.0810739807793
36.4960540146696
37.183594556011
38.579593549383
38.7924099494786
38.3673498704434
38.4014699054526
38.4256020368368
38.4498505937338
38.5126510307094
38.5666155479427
38.6133169255115
38.7488112900135
38.9385059432263
39.0561710969747
39.3702871661371
39.3310813992977
39.1256042013341
39.140068911161
39.2144218463293
39.410851465683
39.4398491086029
39.7000035954565
39.9409308832706
39.8081474049735
39.58268540715
39.4922545179605
39.4920099297916
39.2372896667379
39.2560722112765
39.4286457184066
39.3691930067319
39.376029741458
39.0553240396563
38.7860852373463
38.7980591423627
38.7414516433098
38.492985273588
38.344798895517
38.2286711925189
38.1327038986144
37.9628874649736
37.8486220367619
37.6871996927823
37.6738164068494
37.4277265523752
37.2066621068501
37.1608372109134
37.2367837904079
37.0881149735721
36.9200592928143
36.8506506767203
36.7024820442866
36.6195283995068
36.6263100163309
36.6480932023032
36.6067801699043
36.6544373345308
36.4389855058251
36.1941359696281
36.1264803172947
36.1007800623189
36.0221178665315
36.0626669920751
36.2454686482685
36.2443034864769
36.4606509884219
37.2960258561616
37.883761643902
37.6954635241481
38.4245625881
39.8869533043681
41.9226680060977
44.2018543942316
46.8330967783542
50.8907912699434
53.9021659062966
57.2302009913999
61.4433389274653
64.334059626041
68.6053885826503
72.0212300078607
76.7949859742333
82.2513915748483
87.5766989654117
92.9239058328009
98.1936517966445
104.023362114686
109.812205902421
110.235282889423
115.099865072235
115.07592593322
123.498038206927
153.760527094906
162.902500474082
140.949432815018
101.619740274463
91.2648165036009
92.2334557935317
90.4339471044529
81.9122501624732
81.3150007548906
80.4905126994555
78.8362267866748
74.2128817139238
68.8325348416709
62.4339002614988
57.3117669351388
53.220347343653
49.8415774424734
47.1507907073378
45.0896162712748
42.5836418442779
40.3186273149187
37.5207306858126
34.837986882657
32.2820761763291
29.6181493863364
27.7831133741898
26.3479322248284
25.5713285719508
25.5195236461015
26.2853474919615
27.3452738756232
27.26859940986
26.8061136335004
26.7096465562588
26.6455663222545
26.6280775275586
26.6431809594373
26.6538182122803
26.6934555798686
26.8041789484049
26.9628473794756
27.099138803432
27.3458860963764
27.3185284609208
27.2084404279579
27.2460788393123
27.3348450499405
27.5023494197247
27.6045575229608
27.8569467030304
28.0724339558833
27.9380231012229
27.782229248324
27.711105835216
27.7224330836743
27.5737651661991
27.5756465256305
27.7429371733201
27.7553588936618
27.775392282422
27.532760047874
27.3374748597946
27.3574725783362
27.3393867964411
27.1619375866139
27.0501363487731
26.9503715966253
26.8756574068757
26.7561221617372
26.675603761877
26.5711317598002
26.5690463896381
26.4349420806804
26.3111669011022
26.2769490116122
26.3328599445552
26.2701613196861
26.1812294719961
26.1160978575062
26.0384847649673
25.9944182276682
26.0206246711988
26.0705901828459
26.0883677323826
26.130794572121
26.0435483037875
25.9060924661328
25.8702603054416
25.8858882152962
25.8879407577666
25.9762802033595
26.1690628945657
26.2849655573658
26.5320813141068
27.2822947368165
27.7949767189822
27.5234579036245
27.7910144894037
28.6485139047164
29.9627751415245
31.4535304648111
33.3107905264253
35.8428541843961
37.9360001985117
40.0188293185694
42.8348571132336
44.7828058518779
47.5911737199645
49.9521447340801
52.9311033105844
56.3606225138778
59.8130669632266
62.8441915547207
66.8490903277682
69.0598766279803
72.261729240248
72.6809745134625
73.493590825919
73.1366313959213
78.2630644535458
101.59755111895
124.925371730065
117.029582223316
87.9326140292153
76.7251007044902
75.8706883501378
77.2360460857201
62.6393543827971
56.7135070566
55.1881708573746
54.7805830193613
51.8108109465999
48.4088025400585
44.6296300635285
41.4549482650404
39.055418419112
37.1862485168446
35.5223927816739
34.1311933863479
32.2661272780626
30.2801957141915
28.0430018468468
25.8996271621366
23.8493943639949
21.9043233184691
20.5852176174374
19.6277319417827
19.2347515880475
19.3888476151463
20.0809850405072
20.8123686512733
20.5763639138979
20.1351528642656
19.9915767155536
19.8921726620338
19.8545054860394
19.8433503881272
19.8391903221578
19.8702508376153
19.9650561389555
20.0927387586086
20.2179515876579
20.4127834707878
20.4020834833784
20.3493960584054
20.402040839485
20.4873742052211
20.6298278758674
20.7461231450376
20.9839743380669
21.1584989199205
21.0486365305868
20.9440062121856
20.8805388943175
20.9018747024482
20.8202795126442
20.8235400634762
20.9616602173662
20.9931522370818
21.0218379409124
20.8575089468669
20.7218716202269
20.7456604183348
20.740307928987
20.6109053114576
20.5258645363197
20.4593936320543
20.3921953389359
20.3014704099633
20.2388135560429
20.1694122247763
20.1720009389354
20.1033230827103
20.0356506849229
20.0196872714046
20.0738584692389
20.0573397040104
20.0132086830813
19.9685999603052
19.9293485466008
19.9080943262171
19.933173486964
19.994798460745
20.0504195487913
20.0979023499839
20.0813270669759
20.014103516829
20.0079922230496
20.0541320533582
20.1107455488839
20.2197870595485
20.4062121123903
20.5834056707745
20.8677896418408
21.5624347127777
22.0490518069537
21.7842492233098
21.7991768651751
22.3083086499366
23.1628104816923
24.1988704495473
25.5244767708346
27.2998885374318
28.8576562969242
30.3274154487445
32.2649285730221
33.7942746991623
35.767704017771
37.5793949483581
39.8034129838349
42.1100559448592
44.5858150933627
46.7585361494459
49.1539866175867
50.9249155628966
52.537767646001
52.5245492643789
52.1160794305093
51.5610487133687
54.7574710052634
70.5271764418727
96.3769062494129
100.104649960849
76.8769224176166
67.1410794477999
65.261863528299
69.6390935245514
54.415526038472
43.8129158360836
40.8535217561425
40.6709861869228
39.1083085082274
36.9907086529387
34.6248529593106
32.5110188693221
31.0316053051018
29.8098871216732
28.6295441573227
27.4419312609109
25.838625830012
23.9540641707152
22.0503993425456
20.2207930063503
18.5461836167929
17.100107338239
16.1127117044023
15.4532689771678
15.2578228905645
15.4863824574463
16.0563997992655
16.5208329769642
16.2240223235804
15.8342122070519
15.6814534021406
15.5754852182058
15.534037138161
15.5139580406606
15.5074758126246
15.5321808399397
15.6122028511983
15.7143816330116
15.82227061727
15.9761096557237
15.9822252496606
15.9610020105483
16.0207512312629
16.1028679665863
16.216705938803
16.3294298704087
16.5437270422559
16.6811690477153
16.6035955474739
16.5344877713499
16.4781595954547
16.5020233838776
16.4608766628435
16.4710637574431
16.5824556873724
16.6086062299182
16.6374863097898
16.5340924654417
16.4459316282847
16.4686065767526
16.4659307669078
16.3728470950754
16.3098998131157
16.2737050986931
16.2124761661428
16.1393424239191
16.0880469430029
16.0395236894893
16.0401907943197
16.0070096056224
15.9740696455133
15.9753415804366
16.0294990337433
16.0372254113563
16.0179846649083
15.992792177752
15.9804992962182
15.9750883904368
15.9949891874659
16.0562277388959
16.1311857546029
16.1838132857781
16.2068426212209
16.1832812556276
16.1981518596022
16.2605761181301
16.3514043572472
16.4749508524047
16.6526217283516
16.8532589529761
17.1523808433327
17.7941636886877
18.27564957432
18.067514085901
17.9575133383751
18.2276303934278
18.8021758403692
19.5408425625519
20.5258923368712
21.7955497757671
22.9930634466028
24.1310322346335
25.5182296391975
26.7657993322235
28.2126006322809
29.6649495196765
31.3383354925305
33.0797569440221
34.9639983988546
36.6772259515251
38.303840540093
39.5203047133488
40.2657954487892
40.2332173393217
39.506682956719
38.7897248081974
40.9401787152907
51.3432734098453
73.3700034038261
83.5514438286826
66.2705628032104
59.348630034065
57.4094317873976
63.7431676432757
51.0614641845311
36.9614843030172
32.1211060310035
31.6451490041775
30.7686933252542
29.5580288994199
28.0151129349102
26.6729571855409
25.6501235495151
24.7894548096925
23.8607194301674
22.7576047020813
21.3245627251698
19.5647550065022
17.9150280856231
16.3371930413683
14.9584372236734
13.8521938723149
13.0953957851524
12.626601864498
12.5394318624087
12.7752251307205
13.220454391267
13.4975927309809
13.197504904517
12.8630550308521
12.715593820381
12.618418019493
12.5829387979433
12.5622861052883
12.5563028032686
12.5748005717794
12.6439028330602
12.7247568681339
12.8172660437517
12.9368436754679
12.9585327204272
12.9561000938677
13.0139659330532
13.0904044826788
13.1788663508138
13.2854240166722
13.4694024229345
13.5777421481899
13.5303662067986
13.4849026742047
13.437084653853
13.4593571004262
13.4412044378892
13.45560255822
13.5448388520941
13.5591361826619
13.5851091948364
13.5232095534834
13.4729211217501
13.4923487387587
13.4898987479822
13.4247733666854
13.3810360570748
13.3682049481399
13.3122735720603
13.2529870140717
13.2086929696312
13.1708546622567
13.1669966912255
13.1521798538051
13.1398059311349
13.1541815258981
13.2091012966561
13.2289225131471
13.2249986623174
13.2161629664214
13.221237314939
13.2291375473611
13.2461510206374
13.3007578979764
13.3801841910382
13.4375127915212
13.4789509205232
13.4836014034379
13.5127435978849
13.5816409966887
13.6903080110618
13.8255976283773
13.9966070794665
14.2038280374463
14.5008620896337
15.0831538226024
15.5591863562672
15.4288043004116
15.2657785765518
15.3804964267628
15.7504456421741
16.2952640301086
17.0426718245603
17.9786316846527
18.915319767797
19.8324863610396
20.8696604404631
21.8969463784182
22.9863826269449
24.1822455779447
25.4909033914635
26.878064852926
28.4182330928662
29.724902168014
30.9589648185024
31.7356283393204
32.1472099431274
31.9327773240487
31.2224070555183
30.4423104350494
31.9722710133015
39.08116393824
55.9405587884704
67.9570420299333
56.0540312759764
52.1883936496007
50.9830903171274
58.3708289464205
49.8075050557202
33.5622338531438
26.7051412495026
25.5560698074024
25.0004374166541
24.2976404169264
23.3189071295623
22.4602928587636
21.7868925631915
21.125476917595
20.3059116430945
19.2562318211415
17.954796283937
16.3286400775011
14.8982203080567
13.5371270884393
12.3991043571374
11.5298716046326
10.9383660207865
10.6000862330057
10.5682352812027
10.7776933453923
11.1121945168328
11.2714820676536
10.9942314510731
10.7110430418798
10.5739890323666
10.4897003827487
10.4648080200919
10.4485368121337
10.4432329385201
10.4570447234102
10.5162010415828
10.5816915760651
10.6607715783901
10.7536940528815
10.7843975408648
10.7950630741906
10.8452515365292
10.9141901679166
10.9849787707122
11.0821781558439
11.2327301475893
11.3204876892016
11.2973722008409
11.2670109141621
11.2304805457004
11.2500943543095
11.2421266592371
11.2574619281047
11.332470236791
11.3352277864391
11.3549888968418
11.3225953216512
11.3004407705572
11.3165445849136
11.3110961421876
11.2678531291909
11.2425307605099
11.2432208994042
11.1938974521209
11.1459248334872
11.1055867673551
11.0731435237689
11.0642077942471
11.0582572924559
11.0600518238655
11.082140866873
11.1361532040659
11.1621875689471
11.1693419440016
11.1720483218567
11.1880102249216
11.2054828730688
11.2231625474671
11.2695467565674
11.3441532171175
11.4033625128781
11.4518936174526
11.4750897550925
11.5131223186716
11.5852046578149
11.700640501429
11.8417186292829
12.0071178537284
12.2126522022345
12.4984028572334
13.0194573853037
13.4794712547335
13.4219634629507
13.2519815971424
13.2700696961337
13.499248191165
13.8984899486397
14.4707202636519
15.1820537343212
15.9212438221355
16.6758953796945
17.4659867156084
18.3299951062736
19.1691222194202
20.1677828331495
21.2259210502333
22.3739755418985
23.5934308593296
24.6617048989151
25.6236141117641
26.1827756744266
26.3712081611574
26.0666344392749
25.3375838456143
24.6254250708032
25.7410761514867
30.8426001534635
43.2978004548618
54.4666230973904
46.718385132267
45.3825262286513
45.3167122508761
53.2026695789035
49.1297304416695
32.260482804766
23.3883672504763
21.3628486064919
20.846113528914
20.4306083956612
19.8531246996464
19.3211645226671
18.8526793082724
18.2974548444762
17.5437857862041
16.5367082014167
15.3374144456813
13.858565541578
12.6086704479707
11.4369319819606
10.4983984690329
9.79941335668681
9.32850400238039
9.08016507405135
9.07656639801896
9.24649163068046
9.4923720973915
9.57987799980669
9.33428114335229
9.0953646790304
8.97219219113774
8.90259972881393
8.88800103376484
8.87850433824516
8.87265230648529
8.88407350217688
8.93310398133102
8.98722149144905
9.05508485565099
9.12775677007111
9.16142662092692
9.18109383902314
9.22209438075014
9.28374455972848
9.34257334581559
9.42622963753328
9.54692035783872
9.61885833725134
9.61401926325519
9.59353718999044
9.5693072702567
9.58588649338673
9.58175420633049
9.59522940130403
9.66124176947529
9.65566959465353
9.6676857192598
9.6565599718204
9.65262153033852
9.66178234131952
9.65597559216939
9.63111767472458
9.62259634628006
9.62801918856782
9.58778623969017
9.54956396507467
9.51125730354027
9.48036046510792
9.46749068254311
9.46560483645212
9.47698675524022
9.50285435557452
9.55413345236865
9.58499700158518
9.60005716542019
9.60852822763859
9.63155222759706
9.65532057963628
9.67561159413317
9.71355041007189
9.77857404184371
9.83667316808002
9.88728510451456
9.92177617571296
9.96586688275974
10.0384802453502
10.1536628841312
10.2952223378397
10.4546784645532
10.6528609343321
10.9237150650239
11.387783067443
11.8211589289012
11.8224943079927
11.6694780411811
11.6342978008567
11.7668760552619
12.0560972424002
12.4983224812552
13.0495048870402
13.632224512168
14.2583027854426
14.8759712445372
15.6134153880674
16.2729654751394
17.1237343683234
17.9753592765521
18.9552771080034
19.9414176172563
20.8507828092751
21.5715831663651
22.0004907161304
22.0464656284385
21.724068863272
21.0041592265121
20.3679803418944
21.2089951892306
25.0153081005613
34.2198475495174
43.5692287088823
38.6563443091524
39.0220803311024
40.1051512404761
48.1990454308746
48.3730617632002
32.2690401311778
21.5019529044874
18.4627233797815
17.7788553432077
17.5171595326026
17.1816531758438
16.871659364656
16.537325113175
16.044667421747
15.3209122811231
14.3568593610739
13.2276660540097
11.9278026804046
10.822328691101
9.81356755669189
9.03649641634734
8.46786087547746
8.08802015015852
7.90169325638644
7.91062220720004
8.04538337910761
8.2221260696037
8.26539878636294
8.05207678897171
7.84982715626331
7.74297835667989
7.68847168964007
7.67912408724853
7.67681782676063
7.66994787280203
7.67999016489054
7.71999602735643
7.76463114125339
7.8235085441212
7.8801394970019
7.91373567921253
7.93895444339203
7.97234890904114
8.02792140477379
8.07734667423617
8.14690231730356
8.24187271850389
8.30199662878405
8.30925543415723
8.29483931949738
8.28357183469098
8.2966815197378
8.29273135211733
8.30304098765802
8.36240193226137
8.35186401522
8.35726623934882
8.36004394745778
8.36572092736908
8.36897597704692
8.36406871005619
8.35392107028932
8.35817218297663
8.36381498676302
8.33289987994936
8.30388992456774
8.26646258857856
8.23602058018258
8.22108273644538
8.2212997973552
8.23754221107361
8.26429867661651
8.31193388615898
8.34557456139693
8.36576763711721
8.37695970806706
8.40476936828251
8.43138885716199
8.45380187410115
8.48360932970448
8.53828357162707
8.5938131786501
8.6423165744773
8.68316566951134
8.73268442235764
8.80289482739601
8.91407010699726
9.05120814604253
9.20509268980055
9.39397322243807
9.64663099326083
10.0606316615742
10.4626519864894
10.509676211777
10.3866460122436
10.323262246087
10.3905853503678
10.5964141171188
10.9382845369161
11.3696139599307
11.8306765170548
12.3477841556884
12.848731262731
13.4479154849322
14.0165874456423
14.7336892323249
15.4312933784611
16.2874602444421
17.0731821653792
17.8661002143988
18.415666644566
18.7533514659254
18.7253532463135
18.3818967105378
17.7152906484755
17.1517261667673
17.7984122649058
20.7196448757093
27.6193824536914
35.1178803878027
31.9850392350022
33.2821974671516
35.2564538365133
43.3893030949136
47.1907955926959
33.004223800633
20.6715487242409
16.4892372792703
15.4837398999346
15.2667889931885
15.0750005595437
14.9079211905217
14.6504169875278
14.1959699799013
13.4892011904369
12.5762951678927
11.5210790001163
10.3938766809877
9.39954832732261
8.53261687009139
7.88582195236657
7.4169156097737
7.10634392775692
6.96582920563354
6.97714324208144
7.08333807841108
7.20940738536895
7.2264946368171
7.04311672840556
6.87088105128828
6.77847555530761
6.73758134272434
6.73248482540845
6.73449567084362
6.7283630614267
6.73732606605101
6.77022218947595
6.80771934784902
6.8565069287179
6.90307459171643
6.93525281915609
6.96382018287776
6.99096922216784
7.03989691904097
7.08088591238197
7.13965815792695
7.21324659697523
7.26257074971428
7.27702970781856
7.26658571405121
7.26257758635826
7.27579291713914
7.27031103137988
7.27828008884079
7.32952012626784
7.31938597672697
7.31915736662433
7.32917436771908
7.33928984061604
7.33826127242189
7.33501067349263
7.3355892479506
7.34670560783319
7.35202043297822
7.32865200529348
7.30645534133341
7.27083792633946
7.24260504120406
7.22766324453888
7.22836597081033
7.24654834556025
7.27147360672992
7.31495788823456
7.34684966063413
7.36971696608079
7.38388272797895
7.41400374145762
7.43930649175144
7.46645330996809
7.49022616771486
7.53540876563687
7.58663977546422
7.63321726702328
7.67682782772143
7.7286973699273
7.79489864204621
7.90057396021271
8.03174577466058
8.17491245000081
8.35253189772263
8.58804006564314
8.95826825102534
9.32805633108219
9.41070749800221
9.3191150521711
9.24474859771066
9.26750356591337
9.41040320970739
9.67467149142285
10.0119598265323
10.375969762304
10.8031809005615
11.2322066658101
11.7083643895414
12.2075540291458
12.8022561270297
13.4050943225952
14.1302866113361
14.7893753632249
15.4770878492092
15.8903075194452
16.1749371057213
16.0878999015931
15.7513283923111
15.1475023431527
14.6523722147511
15.1615406258168
17.4531559468532
22.7095684518089
28.6612611973667
26.6040972984321
28.2681263767964
30.7930840104933
38.8082774093563
45.4534443185753
34.0259447673909
20.6586350749639
15.2210309548219
13.7697416173425
13.5004662985732
13.3797786151319
13.2949134251287
13.0819562442112
12.6547162369642
11.9664931405823
11.1010811357879
10.1264214134452
9.13890962952273
8.24452244912764
7.50345367167789
6.96228651025916
6.5702311945079
6.31182499582653
6.20637266469294
6.21789876817063
6.30241146381838
6.39222203125026
6.39411660838967
6.23686280444923
6.0886902905453
6.01141381921113
5.98041509585199
5.97643089992852
5.98174846347659
5.97892038514305
5.98699053164094
6.01367871604488
6.04568266310945
6.08517688930984
6.12588628503692
6.1560866506907
6.18585607812687
6.20969509831885
6.25102119067049
6.28306431361378
6.33117629054306
6.38844387496229
6.42890814924514
6.44707720891515
6.43931753364635
6.44076567393721
6.45349936654357
6.44702561901815
6.45357012204572
6.49604153819727
6.48835123564948
6.48366369953688
6.49640294814215
6.50626559761289
6.50338184224091
6.50181607073051
6.50877730981375
6.52260710113865
6.52930082219228
6.51107340992175
6.49368838645012
6.46200755812812
6.43681267900181
6.42313316996132
6.42276924692109
6.44087900630278
6.4647761563591
6.50321676746636
6.53084473709222
6.55303288358189
6.57085943293946
6.60159442896804
6.62507297821451
6.65410515699108
6.67348148442483
6.71058621506549
6.7571652520313
6.80017521747573
6.84542700745396
6.89805661985277
6.96147391818923
7.06000694953093
7.18062120264598
7.31484011799213
7.48023102526262
7.69947718086929
8.03212012304697
8.36825356383133
8.47471702738533
8.41208005369736
8.3382079908741
8.33125585596176
8.42718876847086
8.62933183918215
8.89296699343692
9.18172786100247
9.52896409029518
9.90127499910106
10.290197500828
10.7253198958148
11.2257815011073
11.7502138116191
12.361917337876
12.9295641954598
13.5078802100065
13.8468943103526
14.0670312665415
13.9609892651184
13.6378039168744
13.1014317691288
12.6648316060828
13.0793453936792
14.8990727422778
18.9717512012382
23.71126812998
22.3133258454929
24.0196582478629
26.7418892716554
34.47576426127
43.1552908742664
35.0143012099738
21.2869188871952
14.52125784326
12.5137974775118
12.1063948635139
11.9999202884589
11.9523935385679
11.7640161449736
11.349339550739
10.6826916694982
9.86868162383888
8.9723993954553
8.09945839775777
7.30165505249979
6.66987048453369
6.20985683679707
5.87701132706098
5.66103974759465
5.58103030460951
5.59248439865745
5.66171619474046
5.72609099545482
5.71940282681739
5.58333267581302
5.45495731978335
5.39203609900695
5.3675984278605
5.36538007858775
5.37208729253288
5.37334075273564
5.38224144725883
5.40400836373673
5.43133623429622
5.46384783387953
5.50088368013815
5.52841704615036
5.55795322271597
5.58034214380131
5.61237534117174
5.63581295273746
5.67444886753672
5.71948552567617
5.75099306976686
5.77261881091603
5.76530610156914
5.77102557822889
5.78175295809759
5.77526106043403
5.78209641496098
5.81472918852057
5.81033373344946
5.80302349936633
5.81412607561606
5.82161228620876
5.81845668608576
5.81873340799826
5.82809712443055
5.84195153165401
5.85128908024585
5.83606065824749
5.82146978019847
5.79516043353116
5.77306586701389
5.76240057721785
5.7602973137554
5.77723633255121
5.79908872516412
5.83273470760423
5.85521728915119
5.87554949244921
5.8956336783831
5.92556977170469
5.94700723445512
5.97481440229805
5.99210002495771
6.02314032303368
6.06369564845095
6.10511358304099
6.151290652001
6.20206153053745
6.2627651813313
6.35287476134684
6.46334854561442
6.58568858075726
6.74018962028014
6.94285418024832
7.24468697533689
7.55043225288373
7.6685295408856
7.63041185597575
7.56301849236196
7.53795377223978
7.59920745994353
7.75206893547077
7.95642764329301
8.19284840563498
8.47247140565125
8.79083354148439
9.11447972342719
9.49324385278703
9.91458192025994
10.3759350385152
10.8984445572327
11.3924990166731
11.8821909508472
12.1628916988358
12.3316474498106
12.2173449583217
11.9191802491447
11.4440325470675
11.0644620894992
11.4008010557901
12.8649151286819
16.0613233455085
19.8667433979769
18.8851715239637
20.4766446249036
23.1377018412328
30.4159177664983
40.3878904357184
35.7372467765424
22.4086412603504
14.3126941682803
11.6369913790123
11.0101390623435
10.8700453680108
10.8207529005946
10.6405124551673
10.2339347138799
9.59129165238187
8.82849487290366
8.00858384465248
7.23030520348451
6.52382386793853
5.98077842907744
5.58606948362666
5.30283125832105
5.12138928274162
5.06020854110954
5.07101038319109
5.12860758336035
5.17678900696691
5.1650895725794
5.04806372363502
4.93735029155848
4.8847041674098
4.86657977583415
4.86628000714002
4.87449145590724
4.87864431203415
4.8904155570028
4.90762055154266
4.9313881343903
4.96091388707916
4.99448862246734
5.01965840345617
5.04607449871342
5.0667438385297
5.09034048783686
5.10647809187506
5.13651428694146
5.17264020386426
5.19622081292885
5.21831093772573
5.21243012403699
5.22088198013958
5.22917785588273
5.22331587437531
5.22998563706624
5.25403173056004