/*--------------------------------*- C++ -*----------------------------------*\
  =========                 |
  \\      /  F ield         | OpenFOAM: The Open Source CFD Toolbox
   \\    /   O peration     | Website:  https://openfoam.org
    \\  /    A nd           | Version:  8
     \\/     M anipulation  |
\*---------------------------------------------------------------------------*/
FoamFile
{
    version     2.0;
    format      ascii;
    class       volScalarField;
    location    "2000";
    object      p;
}
// * * * * * * * * * * * * * * * * * * * * * * * * * * * * * * * * * * * * * //

dimensions      [0 2 -2 0 0 0 0];

internalField   nonuniform List<scalar> 
15600
(
1.12973245093015
1.20378316213969
1.16236457752709
1.07076234620818
1.02627160134103
1.04505820565203
1.07794331709227
1.1027644449717
1.11961189114574
1.13044201534729
1.13723378719825
1.14148593007082
1.1442258559065
1.14626900918405
1.14806135406365
1.14974458532303
1.15171711459914
1.15383137495514
1.15597623129105
1.15839253766152
1.16069586556265
1.16332431401632
1.16563133142712
1.16779635317492
1.16951799155594
1.17063367060066
1.1706240761483
1.16912907634165
1.16974213624444
1.17286640627649
1.17658919537789
1.18098945200641
1.18601627347576
1.19173020676433
1.19793106446736
1.20444682887582
1.21124743642635
1.21824017182997
1.22537006208134
1.23213685538725
1.23911325984796
1.24630236167844
1.25338292395097
1.2604595292701
1.26718983984064
1.27401701065629
1.28063242823533
1.28703062114375
1.29329237608518
1.2995865663305
1.30565652189157
1.31146629748508
1.31719736649583
1.32257927116928
1.32763462393743
1.33268227011923
1.337456723544
1.34218578192443
1.34678349082125
1.35113621073989
1.3554076780715
1.35954246204056
1.3635297304651
1.36737525577841
1.37118149170435
1.37484189235439
1.37841173688637
1.38189775854276
1.38515463688868
1.38832348827549
1.39137311522582
1.3943275274908
1.3972694910138
1.4002061811587
1.40303200489849
1.40582899500337
1.40856759154981
1.41126284076724
1.41390638921216
1.41650550402714
1.41913051702229
1.42174197408329
1.42434496820784
1.42689845032906
1.42933082489528
1.43179257750913
1.43425333091641
1.43667097055327
1.43915853874386
1.44166574436381
1.44405535046275
1.44648749433709
1.45067881543031
1.45693891780695
1.46282616767534
1.46822430050433
1.47309825338549
1.47755142037641
1.48144766859712
1.48444363261053
1.48740624946699
1.48870883446316
1.48912048715311
1.48878252971459
1.48683710631224
1.48486264613696
1.48314153773557
1.48240954638602
1.48313305499105
1.4831626769038
1.47651107392884
1.45830547331465
1.42044998868848
1.35078508473871
1.23503150053745
1.08135090505997
0.876752134673012
0.731548722265799
0.689683275186855
0.847823532419308
1.13123901879935
1.20389745351287
1.16307765662017
1.07166372887049
1.02640018656137
1.04437945646625
1.07716723909098
1.10218388824581
1.11922036031116
1.13019881623392
1.13709524087812
1.14141016869377
1.14418455869802
1.14623976500206
1.14803292302486
1.14971061492404
1.15167107844486
1.15377442757115
1.15590161816986
1.15830879323523
1.16060235970062
1.16321534441879
1.16552806072256
1.16770334701714
1.1694412737403
1.17058370619035
1.17059775118694
1.16911701446789
1.16977785509547
1.17291397004846
1.17663120478344
1.1810288883508
1.18605306317196
1.19176262340794
1.19796031467248
1.20447203400983
1.21126751567184
1.21825606905584
1.22538541915549
1.23214836483082
1.23912218619859
1.24630776695853
1.25338400044573
1.26045956503598
1.26718461897447
1.2740101472052
1.28062254328395
1.28702126513473
1.2932818130556
1.29957236061978
1.30564166927724
1.31145079219859
1.31717903868183
1.32256148257546
1.327615959893
1.33266492336485
1.33743746910066
1.34216495642589
1.34676171686817
1.35111422573018
1.35538570418484
1.35951875602743
1.36350676882044
1.3673539917034
1.37116073821548
1.37481928605997
1.37838780171614
1.38187315048512
1.38513163498358
1.38830166668011
1.39135233716845
1.39430742909508
1.39725076923566
1.40018918126666
1.4030128201534
1.40580937555185
1.40855070464915
1.41124550859515
1.41389070386286
1.41649138839985
1.41911492842558
1.42172830236112
1.42433062675356
1.42688467212231
1.42931932719618
1.43178352348947
1.43424681291447
1.43666705529561
1.43915649656226
1.44166804787407
1.44406086313664
1.44648059833175
1.4506603366489
1.45695937464386
1.46287252486119
1.46828813343155
1.4731701041635
1.47761934844528
1.48149725185153
1.48449373190232
1.48741472335838
1.48865675967016
1.48904286920903
1.48866716485244
1.48667481388392
1.48467114108933
1.48295630371363
1.48224479366204
1.48293921448627
1.48284423631209
1.47582147378675
1.45717047346721
1.41872436683524
1.3481165815726
1.23190539115111
1.07846807076261
0.875442580437378
0.731515373900267
0.689640484291964
0.848429264106973
1.1332019642043
1.2042954694668
1.16422348710975
1.0725871881369
1.0263593753465
1.04363560558719
1.07637592973749
1.10159691063138
1.118821668942
1.12994940137378
1.1369538159239
1.14133301841339
1.14414470800716
1.14621390852061
1.14800773346025
1.14968213899679
1.15162805860337
1.15371776667741
1.15581596570835
1.15820965544016
1.16048248900031
1.16305615566033
1.16536575959658
1.16754225232781
1.16929134870825
1.17046561984997
1.17051496872806
1.16906915387418
1.16982039618641
1.17297120352066
1.1766767672552
1.18106963679661
1.1860822324636
1.19178109041681
1.19797376803178
1.20447451245822
1.21126085048747
1.21824393288284
1.22537199514247
1.23213136996162
1.23909950618804
1.24628000723639
1.25334826257731
1.26042410410762
1.26714336872604
1.27396524384493
1.28057567074608
1.28697883206668
1.29323407050239
1.29952033132101
1.30559345432926
1.31140287919325
1.3171256349985
1.32251315650517
1.32756684495961
1.33262070012209
1.33738921762106
1.34211490171543
1.34671238666811
1.35106524295565
1.35533787731121
1.3594677580448
1.36345774475758
1.36730936461566
1.37111881981739
1.37477404153902
1.37834087738476
1.38182596081349
1.38508893056591
1.38825996509781
1.39131277694067
1.39427268241782
1.39722056866296
1.40016049161914
1.40298128706212
1.4057778600075
1.40852366393586
1.41122022242813
1.41386863923843
1.41647350333265
1.41909661871691
1.42171266283637
1.42431367747628
1.42687143277208
1.4293107862835
1.43177991555537
1.43424827158299
1.43667587500585
1.43917175414022
1.44169179317282
1.44408935966086
1.44648820893233
1.45064234753331
1.45697877012931
1.4628964222553
1.46831248203528
1.47318729819222
1.47761565212612
1.48146184919279
1.48447504331932
1.48733972879702
1.48850893716459
1.48888957743983
1.48848913820444
1.48644106235722
1.48437511135481
1.48266102446044
1.48196255545538
1.48257824376929
1.48235034023851
1.47491955057471
1.45583493451278
1.41693594070301
1.34550772010231
1.22938818183251
1.0771040899486
0.876219399301407
0.73270578935985
0.689691620838691
0.850018504576708
1.13462400555584
1.20521792812017
1.16618988712023
1.07362810700661
1.02598052105361
1.0427659654566
1.07556321382897
1.1010116938431
1.11842152152413
1.12969833068502
1.13681331372873
1.14125726788574
1.1441098501825
1.14619506995175
1.14798732517562
1.14966245351852
1.15158587309831
1.15365982420609
1.15571310529481
1.15808750214158
1.16034173291203
1.16283830405571
1.16513506509954
1.16730599270528
1.16905892773483
1.17027020438477
1.17036305858945
1.16897669546953
1.16985791688463
1.17302498405368
1.17671286733255
1.18110032309039
1.18609671836952
1.19177891625994
1.19796652329369
1.20445012649856
1.21121827420883
1.21819723945631
1.22533071872184
1.23208285773107
1.23904111084849
1.24621728652864
1.25327434424081
1.26035240839365
1.26706566610129
1.27388524399445
1.28049238483314
1.28690126859347
1.29315007133645
1.29943096319947
1.30550848024289
1.31132293858732
1.31703884534315
1.3224353547048
1.32748609283667
1.33254917983121
1.33731068214509
1.34203497331095
1.34663610508596
1.35098786156646
1.35526280881874
1.35938929004771
1.36338193680631
1.36723963805097
1.37105544745043
1.37470557429345
1.3782710747625
1.38175615740662
1.38502549464951
1.38819615269321
1.39125414446386
1.39422236129209
1.39717668646297
1.40011994122574
1.40293642132372
1.40573162698725
1.40848646799159
1.4111848895766
1.4138387251853
1.41645080960094
1.41907221896389
1.42169759449579
1.42429379309078
1.42685694000252
1.42930436890205
1.43178049697924
1.43425712996113
1.43669629695607
1.43920351373289
1.44173547821239
1.44413705583895
1.44649946005621
1.45061290711033
1.45699563036368
1.46289929212417
1.46829681212669
1.47314852947707
1.47753220368369
1.48133736321068
1.48440996926479
1.48716884901175
1.4882466433555
1.48865375417275
1.48822759076826
1.48610823963199
1.48392776609289
1.48221023522891
1.48149624205113
1.48193476041484
1.48153216434862
1.47362770387075
1.45412995026264
1.41498397039043
1.34297356788872
1.22784859540441
1.077718917402
0.879407826886092
0.735737599174704
0.69040664939078
0.853259546710152
1.13528695926878
1.20668054604004
1.16916973437198
1.0749930188729
1.02501264086553
1.04167125741565
1.0747172921951
1.10044261753307
1.11803030040762
1.12945502240028
1.13667889484934
1.14118546577373
1.1440825089477
1.14618510173918
1.14797014332632
1.14964934620438
1.15153402552827
1.15359342264358
1.15558765886643
1.15793671276998
1.16018572149777
1.16256442680669
1.16484533791777
1.16700433839379
1.16875653880058
1.17000344336219
1.17014161812384
1.16884217630418
1.16987974280463
1.17305815933599
1.17672523350678
1.1811140155233
1.18609026962493
1.1917516175738
1.19793856689127
1.20440203710366
1.21114455118765
1.21812140743822
1.22526356721044
1.23201170303969
1.23895393638306
1.24612925277781
1.2531740373876
1.26025403316566
1.26696632786022
1.27378191876731
1.2803866750009
1.28680174255932
1.29304259732704
1.29931796057656
1.30539816009096
1.31122602055563
1.31693324465476
1.32234042383032
1.32738531933981
1.33245937735925
1.33721243885988
1.34193663328731
1.34654368986707
1.35089241444492
1.35517052317439
1.35929383483644
1.36328941442203
1.36715344209512
1.3709785787013
1.37462133632235
1.37818740884836
1.3816718583762
1.38495028619099
1.38811642010191
1.39118257357408
1.39416179464513
1.39712410955125
1.40007146478782
1.40288161899888
1.4056724842338
1.40844190735423
1.4111411391289
1.41380203085981
1.41642351773845
1.41904112917147
1.42168384336369
1.42426980434251
1.42684096936429
1.42929910629065
1.43178037723303
1.4342657797404
1.43672098322014
1.43924279144101
1.44178556061466
1.44418730233828
1.44649764966959
1.45056220843803
1.457001227472
1.46288726495228
1.46825908061018
1.47307713492744
1.47739247095153
1.48115334965434
1.48434244703884
1.48692526859767
1.4879044651161
1.48837207964402
1.4878903121629
1.4856895073756
1.4833426068806
1.48161373709017
1.48083593700434
1.48096397883908
1.48034846629469
1.47194852609844
1.45198948830965
1.41280090964148
1.34043891465492
1.22717855463348
1.07957907502028
0.884077371127658
0.740529174959632
0.692402643341689
0.858219329182472
1.13537404980543
1.2083964762419
1.17300951783499
1.07699159713844
1.02323472203486
1.04020474167855
1.07381012761092
1.0999053313176
1.11766135076194
1.12923072959949
1.13655522851749
1.14111812910025
1.14406137831842
1.14618172431553
1.14795185248426
1.14963777575656
1.15145822139451
1.15350452783985
1.15543432697831
1.15775373906962
1.16001869518179
1.16223973061317
1.16450491189186
1.1666475569328
1.1683939639346
1.16967063951028
1.16985248921479
1.16867635347351
1.16988311159495
1.17306444333543
1.17671038701404
1.18110753455166
1.18606320456867
1.19170221850093
1.19789238447842
1.20433192950339
1.21104222167079
1.21802373826648
1.22517229967259
1.23192162678863
1.23884525086453
1.24602270860463
1.25305421826671
1.26013470560006
1.26685848184633
1.27366073782209
1.28026686111151
1.28668967744054
1.29291957171624
1.29918740711157
1.30526969973287
1.3111221639502
1.31681666433712
1.3222336229912
1.32727174514259
1.33235612493504
1.3371015330292
1.34182701177821
1.34644110925182
1.35078624607199
1.35506764521729
1.35918794707633
1.36318714634507
1.36705737583802
1.37089358215427
1.37452697279275
1.37809580932883
1.3815780016801
1.38486976972059
1.38802569268331
1.39110269773271
1.39409511298665
1.39706790154649
1.40001776830767
1.40281957740999
1.40560369849579
1.40839376590387
1.4110902441767
1.41376037683475
1.41639281343502
1.41900310445503
1.42167150695809
1.4242429307927
1.42682269039569
1.42929376142359
1.43177660559863
1.43427055499162
1.436745185184
1.43928159774095
1.44183001742751
1.444228718379
1.44647629440181
1.45048918122099
1.45698533364754
1.4628633235862
1.46820725712632
1.47298902810938
1.47720651428306
1.48093019460619
1.48430109835086
1.48663596388625
1.48751592114141
1.4880617333369
1.48747899289739
1.48520363974391
1.48265918588909
1.48088963775708
1.4799815901625
1.47966725407958
1.47875819241333
1.46995442573753
1.44947571393323
1.41042269654996
1.33806038614421
1.22725460173683
1.08204753602949
0.889451567642637
0.746770954995434
0.696123240306947
0.864599273215904
1.13516445285967
1.20998985552239
1.17736211396251
1.07998853961395
1.02058796896188
1.03817249202074
1.07279313664466
1.09940779091681
1.11732640015583
1.12903563057983
1.136445933474
1.14105457816564
1.14404484733403
1.14618138947682
1.14792954044222
1.14962415030018
1.15135579039913
1.15338018180057
1.15525116730248
1.15753551627742
1.1598287466966
1.16187062318986
1.16412358255377
1.16623998664541
1.16797610068641
1.1692728336052
1.16950003693585
1.16849562254348
1.16987129844582
1.17304298994234
1.17666856849952
1.18107963679445
1.18601640754389
1.19163369893454
1.1978296350265
1.20423951326379
1.21091230394885
1.21790462374342
1.22505673671143
1.23181479048792
1.23871835999424
1.24589941672972
1.25291771410862
1.25999612142653
1.26674856275209
1.27352288576021
1.28013791698455
1.28656751798506
1.29278495460418
1.29904111300599
1.30512733875261
1.31101489133
1.31669169250474
1.32211663538934
1.32714903250674
1.33224094759937
1.33698033686833
1.34170830025271
1.34633063393682
1.35067273649592
1.35495696278653
1.35907490048724
1.36307778257486
1.36695504420862
1.37080266913673
1.37442476606416
1.37799923603929
1.3814765291919
1.38478619694513
1.3879256114078
1.39101708912188
1.39402428365524
1.39701104976211
1.39995970929088
1.40275150538957
1.40552735200167
1.40834308236788
1.41103324001865
1.41371420986174
1.41635839719429
1.41895865565173
1.4216592754124
1.42421387004686
1.42680052246396
1.42928713802239
1.43176826898374
1.43426975472635
1.43676680860348
1.43931623258557
1.44186154664424
1.44425665408568
1.44643719514799
1.45039934527498
1.45693862020476
1.46282296477097
1.46813737264097
1.4728877427856
1.47697887638234
1.48067830201877
1.48426483629724
1.48630937382239
1.48709861692273
1.4877099224964
1.48698167579441
1.4846462674831
1.48190085448792
1.48004827232982
1.4789396375732
1.47807727242516
1.47682763844496
1.46771179561052
1.44666075619519
1.40790223716352
1.33591133503077
1.22786294557114
1.08480912727633
0.895075899586392
0.754135639026939
0.701872096152681
0.872080977668057
1.13488576506721
1.21117787582672
1.18184395970812
1.08429053379563
1.01728387145793
1.03536621736362
1.07157757577948
1.09894107152127
1.11703673785615
1.12887687007304
1.13635422571724
1.14099563266801
1.14403472714032
1.14618238253922
1.1479063489392
1.1496058681824
1.15124185567853
1.15321144172146
1.15504077519848
1.15727944089344
1.15960158034004
1.16146062782591
1.16370947733694
1.16578297470361
1.16750863941476
1.1688120668968
1.1690932221167
1.16831456590128
1.16984998029766
1.17299591707162
1.17660223096034
1.18102990432035
1.18595181712748
1.19154946801732
1.19775096273099
1.20412535466023
1.21075736423079
1.21776318466086
1.2249162533862
1.23169223803737
1.2385759896172
1.24575946036636
1.25276583236295
1.25983961289716
1.26663872059828
1.27336851947776
1.28000326967919
1.28643433629849
1.2926415312162
1.2988793837852
1.30497398572869
1.31090479622554
1.31655944185023
1.32198965182151
1.32701933107149
1.33211395232214
1.33684904419528
1.34158102617577
1.34621302046222
1.35055362679681
1.35483961978531
1.35895618020501
1.36296246697299
1.36684854929353
1.37070587685183
1.37431638893263
1.37789949452548
1.38136821909695
1.3846995690603
1.38781704284769
1.39092734275825
1.39394998077261
1.39695558917466
1.3998970480443
1.40267848084973
1.40544491128369
1.40828956807286
1.41097137035219
1.41366348565476
1.41631951132827
1.41890961704413
1.42164448261374
1.42418333174647
1.4267732214025
1.42927890633196
1.43175552495113
1.43426285685149
1.43678511193222
1.4393446642882
1.44187660940659
1.44426887304983
1.44638518108524
1.45030011519817
1.45685737837559
1.46275992553009
1.46804673066545
1.47277326275961
1.47671114464235
1.4804030936991
1.48420152410421
1.48594783704763
1.48667212675046
1.487292208046
1.48639638931589
1.48399496121879
1.48109136118951
1.4790858056429
1.47770877056189
1.47622111763099
1.47458935588401
1.46525847079938
1.44363186214598
1.40519765882987
1.33402096014442
1.22889573593117
1.08767870187995
0.900752477693495
0.762390420604939
0.70973178961185
0.880403859854815
1.13467702371084
1.21179514673156
1.18612992894268
1.09001193948209
1.01378966651533
1.03157251747764
1.07003351112968
1.09848667116557
1.11680083520195
1.12876292523522
1.13628491730517
1.14094338097588
1.14403329764891
1.14618547958996
1.14788919129954
1.149579458012
1.1511418192377
1.15299196500631
1.1548093212778
1.15698722086593
1.15931889417522
1.16101448824203
1.16326576106371
1.16527813203128
1.16699697175411
1.16829343438808
1.16864296027475
1.16814273732046
1.16982442909928
1.17292575013843
1.17651411391857
1.1809576601827
1.18587231766787
1.19145414923018
1.19765677971854
1.20399070511913
1.21058152600133
1.21759857002688
1.22475038305973
1.23155304886307
1.23842097090954
1.24560254898304
1.2525992659648
1.25966806030824
1.26652744493779
1.2731977524702
1.27986549472377
1.28628708271255
1.29249138215852
1.29870224813044
1.30481214655651
1.31079123858922
1.3164194014811
1.32185178946369
1.32688417296317
1.33197568970433
1.33670744382925
1.34144572950312
1.34608804250365
1.35042969885193
1.35471599270411
1.35883279495217
1.36284164888616
1.3667400089338
1.37060299220769
1.37420310591383
1.37779720525547
1.38125352178775
1.38460852081104
1.38770181677303
1.39083467731235
1.39387218420579
1.39690279028091
1.39982929222712
1.40260097137697
1.40535869874903
1.40823283948326
1.41090560737837
1.41360821401296
1.41627524572156
1.41885829194594
1.42162440254558
1.42415198772383
1.42674053730381
1.42926917713811
1.43173874899525
1.43425101365313
1.43679975009224
1.43936586561925
1.4418736552522
1.44426401953946
1.44632497303947
1.45019686964244
1.45674304254485
1.46266904482988
1.46792940377095
1.4726440791003
1.47640880984936
1.48010873158383
1.48407232547981
1.48555881255254
1.48625140775783
1.48677968938808
1.48573412701359
1.48321519153931
1.48024017240292
1.47799064467348
1.47628146207197
1.4741189489806
1.47208132999979
1.46262610385886
1.44042573844519
1.40231383338304
1.33242592407402
1.23026468832656
1.09052545112137
0.906436334542972
0.771428632077348
0.719574091224816
0.88935929473246
1.13455131764295
1.21178404835257
1.18998163926462
1.09701722500494
1.01075723252857
1.02667293439073
1.06801416567428
1.09799944383762
1.11662451013316
1.12869425451882
1.13624129495906
1.14090279675201
1.14404763977932
1.14619035711364
1.14788210104307
1.14954251711305
1.15106747155329
1.15271899324902
1.15456641339814
1.15666375591585
1.15897145274493
1.16053599396687
1.16279236512617
1.16472307796384
1.16644970911674
1.16772365916241
1.16816118740006
1.16798537424969
1.16980109631471
1.17283738912333
1.17640276684264
1.18086055451994
1.18578018556583
1.19135007006494
1.1975475580221
1.20383537211972
1.21038797290997
1.21741194432483
1.22455756728985
1.231397861415
1.23825456318873
1.24542650070975
1.25241751636118
1.25948440623032
1.26641020834623
1.27301082200526
1.2797262426665
1.28612239784976
1.29233635248235
1.29850963312463
1.30464375622332
1.31067311652008
1.31627125385058
1.32170594229254
1.32674523126949
1.33182675606333
1.33655491827208
1.34130265705407
1.34595592976375
1.35030176800534
1.3545856246563
1.35870534447748
1.3627151934577
1.36663094300808
1.37049296982295
1.37408454293256
1.37769312867588
1.38113244077121
1.38451055103491
1.38757896959722
1.39073815180859
1.39379021149173
1.39685328334367
1.39975544184102
1.40251836718545
1.40527155790575
1.40817083287139
1.41083640648572
1.41354763604357
1.41622578878359
1.41880563928219
1.42159702624639
1.42412044641834
1.42670174135003
1.42925774835491
1.43171764708409
1.43423502209172
1.43680881747484
1.43937855442856
1.44185076851384
1.44424220426713
1.44625941380982
1.45009477521533
1.45660111439248
1.46254397295969
1.46778518960305
1.47249259691673
1.47608348870198
1.47979689173162
1.48384796833518
1.485143084391
1.48585319040119
1.48613763099836
1.48501655338179
1.48230226395728
1.47933802167697
1.47675408060708
1.47467287464315
1.4717813238151
1.46933411532443
1.45980479447208
1.43708127218403
1.39922999308529
1.33120349851177
1.23187730155532
1.09325832118936
0.912145962862458
0.781230239621448
0.731140393774739
0.898786697808448
1.13446127935759
1.21116310662567
1.19324130471157
1.10498963951329
1.00891402970502
1.02072809862998
1.06533870598551
1.0974132651655
1.1165071073048
1.12867101219319
1.1362319211281
1.14088029745738
1.14408171187161
1.14619909403645
1.14788751444152
1.1494926616779
1.15101636347341
1.15241476008333
1.15431857251291
1.15631404875737
1.15856238918504
1.16003345591041
1.16228582205284
1.16412151396037
1.16587626876969
1.16711078523089
1.16766000280996
1.16784210506184
1.16978562627134
1.17273668272783
1.17627121532931
1.18074069147922
1.18567866859682
1.19123898873544
1.1974252698084
1.20366128058373
1.21017925559776
1.21720305845386
1.22433461944164
1.23122637107445
1.23807731470534
1.24523112071202
1.25222053976777
1.25929370461329
1.26628126549236
1.2728077392759
1.27958599983272
1.28593823371028
1.2921770088081
1.29830288809217
1.30447093774857
1.31054843357882
1.31611404422928
1.32155179451463
1.32660172689173
1.33166762661961
1.33639146604031
1.3411529816561
1.34581564718988
1.35016933364332
1.35444917080809
1.35857453731864
1.36258354396928
1.36652195189798
1.37037510252928
1.3739626792652
1.37758825260272
1.38100660965033
1.38440256215135
1.38745089881545
1.39063709861769
1.39370452776648
1.39680640685694
1.39967705420445
1.40243283857014
1.40518667138426
1.40810219369143
1.41076419958759
1.41348140276298
1.41617148248173
1.41875280402284
1.42156012423494
1.4240878359394
1.42665755130676
1.42924498389867
1.43169271851999
1.4342159446563
1.43681100359477
1.43938461619366
1.44181106349026
1.44420436335458
1.44618815516735
1.44999635465116
1.45643829517089
1.46237789801538
1.46761612248963
1.47231356307973
1.47574683164851
1.47947183669202
1.48352499140967
1.48469785899612
1.48548949974866
1.48538325545017
1.48425287717007
1.4812769657703
1.47836815263967
1.47538022813278
1.47289828488795
1.46923178160649
1.46640328217186
1.45678904646597
1.43363990409203
1.39593156199378
1.33037945281078
1.23365597695994
1.09583946878335
0.917914916143173
0.791809151029946
0.74411924431362
0.908545089294057
1.13433756460686
1.20998461096993
1.19583559178573
1.11351030522754
1.00891662498307
1.01397118941073
1.06184715143292
1.09664711211589
1.11643365330297
1.12869027015459
1.13626339117686
1.14088595813519
1.14414023779097
1.14621567741669
1.14790407444037
1.14942795733096
1.15097663185695
1.15210382205637
1.1540564158796
1.15594307738076
1.15809821702091
1.15951587203025
1.1617402003958
1.16347893865566
1.16528272606052
1.1664649705688
1.16714904437547
1.16770938778193
1.16978193133486
1.17262882388696
1.17612202501537
1.1805969158876
1.18557192205726
1.19111782047898
1.19729291330535
1.20346857100484
1.20995791370435
1.21697503272909
1.22407652127144
1.23103799800848
1.23788922512722
1.24501805599898
1.25200834170449
1.25910057939984
1.26613566417785
1.27258998121058
1.27944351038482
1.28573517173943
1.29201570286962
1.29808458706435
1.30429195990463
1.31041470032067
1.31594741151127
1.32139157255139
1.32645339451473
1.33150093938947
1.33621692192282
1.34099790111969
1.34566762464645
1.35003335907437
1.35430710890928
1.35844018391327
1.3624469119083
1.36641339371739
1.37024864741583
1.37383762018031
1.37748143312581
1.38087611736824
1.38428165329697
1.38731813559378
1.39053026988233
1.39361510951955
1.39675933230488
1.3995933684362
1.40234662487812
1.40510676871227
1.40802605807633
1.41068793262246
1.41340995553853
1.41611250957999
1.41869925275977
1.42151191694067
1.42405574609377
1.42660785812866
1.42922786227697
1.43166458056687
1.43419571965938
1.4368043275242
1.43938129014787
1.44175769250078
1.44415265854074
1.44610995961305
1.44990287940484
1.45626270116119
1.46216559460131
1.46742541185276
1.47210170842273
1.47541446066452
1.47913025843775
1.48310944534298
1.4842138747981
1.48511793139513
1.48454892043141
1.48343442223833
1.48016152119699
1.47730773292376
1.47387237370396
1.47097868488711
1.46652152480552
1.46332516671442
1.45356221834701
1.43014704252174
1.39243451152927
1.32983354845425
1.23536264328447
1.09823890070873
0.923810461589924
0.803127975847774
0.758209276731582
0.918514067325638
1.13409579942214
1.20831439147699
1.19773055442898
1.122168088639
1.01129687910477
1.00681854291845
1.05739979548688
1.09558870958812
1.11637317076385
1.12874378409577
1.13634030740271
1.14092844694533
1.14422216525986
1.14624338615411
1.14792816094897
1.14935659365
1.1509155588034
1.15181151507247
1.15377257572131
1.15554780290539
1.1575894071039
1.15899475532727
1.16115018056227
1.16280354509184
1.16466769360924
1.16579736129088
1.16663303908672
1.16758056720166
1.1697878554773
1.17251737903528
1.17595910053949
1.18043093374665
1.18546308692084
1.19098222182175
1.19715420415451
1.20325851823123
1.20972534549526
1.21673179345233
1.22377488723058
1.23083444613829
1.23768992160787
1.24479047143791
1.2517823782858
1.25890783626999
1.26597073049244
1.27236061512872
1.27929814894959
1.28551673350852
1.29184861969563
1.29785863718562
1.30410830880946
1.31026894399994
1.31577145043982
1.32122817849589
1.32629863912668
1.33132797038612
1.33603276760771
1.34083831865648
1.34551222030052
1.3498937351031
1.3541602813079
1.35830209676812
1.36230614711011
1.36630552290234
1.3701137565576
1.37371094431893
1.37737401074328
1.38074269576778
1.38414610075838
1.38718154285029
1.39041786652251
1.39352221605113
1.39670750036475
1.39950374990468
1.40226013602112
1.40503464678122
1.40794252570802
1.41060559104608
1.41333360061787
1.41604888732346
1.41864546214115
1.4214478103062
1.42402270501958
1.42655702604504
1.42920535905426
1.4316348219452
1.43417349425238
1.43678765850584
1.43936974575585
1.44169457401824
1.44408845734018
1.44602189362797
1.44981034217077
1.45608090457285
1.46190168086388
1.46720707139217
1.4718513430819
1.47509799144537
1.47876568680893
1.4826164178189
1.48369294219705
1.48469570326652
1.48366824915186
1.48253402227472
1.47900742000615
1.47612901497793
1.47224075414795
1.4689146371598
1.46368986890479
1.46012422453674
1.45008844429147
1.42663903885325
1.38874964939426
1.32942704065662
1.23672753278367
1.10043858300243
0.929910461544067
0.815137380759613
0.77313111485001
0.928586515523463
1.13367189643036
1.20621837592743
1.19892873939212
1.13063260996752
1.01635746476357
0.999809808426584
1.05190404842097
1.09410846807621
1.11626718763514
1.12882198311952
1.13646495217649
1.1410190627125
1.14432716311943
1.14629209076266
1.14795291692161
1.14928799280287
1.15080965142178
1.15157857580842
1.15345980548716
1.15512393745583
1.15704980707115
1.15848263620624
1.16051079384805
1.16210742997769
1.16402753755981
1.16512054883121
1.16611333478187
1.16744966480496
1.16979596823445
1.17240187802967
1.17579148443507
1.18024444406641
1.18535299355579
1.1908307564172
1.1970089105063
1.20303185833873
1.20948438698931
1.21647246942657
1.2234322453125
1.23061837271374
1.2374807099293
1.24455329149818
1.25154752077877
1.25871838922368
1.26578670416777
1.27212052597423
1.27914965374744
1.28528947631331
1.29167724955001
1.29762897554659
1.30392175364292
1.31010965066583
1.31558734251724
1.32105967723113
1.32613486897385
1.33115360238716
1.33584118981124
1.34067422679111
1.34534979079803
1.34975067501265
1.35401032609099
1.35816106720589
1.3621614561317
1.36619760204853
1.36997075641115
1.37358313214359
1.37726665131957
1.3806084624133
1.38399647180252
1.38704661391553
1.39030016769611
1.39342520228558
1.3966444106811
1.39941221816936
1.40217532626779
1.40496991865846
1.40785165146683
1.41051465910522
1.41325429556851
1.41598020450972
1.41859281766924
1.42136680615371
1.42398754770662
1.42650586471276
1.42917232550577
1.43160428004527
1.43415095291322
1.43675956411076
1.43934718854601
1.44162629747148
1.44401142554748
1.44592396956937
1.44971314593317
1.45590126795017
1.46158974229839
1.46695070319687
1.47155734445859
1.47480065327359
1.47836918765405
1.48206522010732
1.48313976427915
1.4841807100012
1.48281884933859
1.48148040462311
1.47785419567345
1.47480287479043
1.47050632787959
1.4667174195191
1.46079468025585
1.4567996788696
1.44637382870878
1.42309133538374
1.38490252984662
1.32898652957559
1.23752887892236
1.10244411899005
0.936295590464743
0.827764752284285
0.788649448362366
0.938663768491012
1.1330266298183
1.20375694503981
1.19947980370817
1.13865689552283
1.02410015636193
0.993607258504793
1.04538531272087
1.09206026044189
1.11604638456715
1.12891528831356
1.13663657776377
1.14116446459949
1.1444486867651
1.14636643323226
1.14797812790871
1.14923253755123
1.15065708839946
1.15141770071572
1.15310521788017
1.15467097598956
1.15649250082837
1.15796856552322
1.1598169732991
1.16140602720319
1.16335613886895
1.16444304255392
1.16558736314678
1.1673133835664
1.16979599760147
1.17228149573763
1.17562264824564
1.18003605014514
1.18524311230607
1.19065683294443
1.19685095182014
1.20279100119112
1.20924043956669
1.21620320492748
1.22305715881083
1.23039229007962
1.23726813322747
1.24431272240623
1.25130788796479
1.25853314545304
1.26558711018683
1.27187464183196
1.27899700139241
1.28506094539858
1.29150190248813
1.29739928683051
1.30372893756923
1.30993710166593