/*--------------------------------*- C++ -*----------------------------------*\
  =========                 |
  \\      /  F ield         | OpenFOAM: The Open Source CFD Toolbox
   \\    /   O peration     | Website:  https://openfoam.org
    \\  /    A nd           | Version:  7
     \\/     M anipulation  |
\*---------------------------------------------------------------------------*/
FoamFile
{
    version     2.0;
    format      ascii;
    class       surfaceScalarField;
    location    "2000";
    object      phi;
}
// * * * * * * * * * * * * * * * * * * * * * * * * * * * * * * * * * * * * * //

dimensions      [0 3 -1 0 0 0 0];

internalField   nonuniform List<scalar> 
30950
(
-1.88200942530802e-05
-2.16445328408541e-05
2.392089592969e-05
-4.27882730480671e-05
3.58943860998291e-05
-1.19318537617209e-05
8.43854529051023e-06
2.74597181144932e-05
-1.58007492560815e-05
2.42403283263765e-05
-2.06767784167057e-05
4.87620632508141e-06
-1.85129772049259e-05
-2.16536109668274e-06
-1.6515200154547e-05
-1.9977193543088e-06
-1.45261659946607e-05
-1.98918032555632e-06
-1.30797333280997e-05
-1.44645681797482e-06
-1.21096148325922e-05
-9.69966104779723e-07
-1.18065356160186e-05
-3.03396667634517e-07
-1.2581708463707e-05
7.74445538904764e-07
-1.43793719958766e-05
1.79881742639788e-06
-1.69612957658356e-05
2.58174650791937e-06
-2.08843332125365e-05
3.92313592778768e-06
-2.54929579191825e-05
4.60847384521767e-06
-3.02164463789902e-05
4.72323363247241e-06
-3.58598366675285e-05
5.64377771911198e-06
-4.1354204732472e-05
5.49435932555129e-06
-4.77957033291645e-05
6.44151499579551e-06
-5.21811585326503e-05
4.38550150155944e-06
-5.67724611755588e-05
4.59136319558913e-06
-5.94660683956761e-05
2.69357739368485e-06
-6.0241835346581e-05
7.75765658633126e-07
-5.78808042050577e-05
-2.36098656039655e-06
-5.48221116716787e-05
-3.05834522697778e-06
-6.92794190244465e-05
1.44572438515095e-05
-8.92200396586676e-05
1.99413969808193e-05
-0.000101598750333741
1.23786228269006e-05
-0.000111587771095657
9.98950338213975e-06
-0.000119186443250203
7.59806913700694e-06
-0.000124783630529847
5.59785949386689e-06
-0.000128424774615105
3.64065210392831e-06
-0.000130143912502779
1.72034836651344e-06
-0.000130145144286213
9.11929829729582e-10
-0.000129243482507987
-9.01068247598532e-07
-0.000127616231804851
-1.62829164551252e-06
-0.000122569732890279
-5.04508651812789e-06
-0.000119381699923486
-3.18843687733954e-06
-0.000116354185408102
-3.0263011967378e-06
-0.000111426816330487
-4.92826877673064e-06
-0.000106266293378104
-5.15886042473217e-06
-9.99979645618237e-05
-6.26909876480611e-06
-9.52236743584899e-05
-4.77385869971448e-06
-8.86296267893913e-05
-6.59593083183926e-06
-8.23517220125957e-05
-6.27680723935968e-06
-7.70637456828916e-05
-5.28894990806029e-06
-7.15694863114304e-05
-5.49242504768153e-06
-6.4716084149691e-05
-6.85391925454983e-06
-5.86888399939494e-05
-6.02650349157055e-06
-5.33748600979596e-05
-5.31551613274749e-06
-4.63528836093366e-05
-7.01966934574917e-06
-3.98963220189924e-05
-6.4566998400064e-06
-3.50691367332418e-05
-4.82468420104521e-06
-2.9686509893604e-05
-5.38319492701696e-06
-2.51541021383967e-05
-4.52899698672741e-06
-2.00798764605625e-05
-5.07476007735398e-06
-1.45686144222558e-05
-5.50954342541253e-06
-1.0055873312909e-05
-4.51518778515378e-06
-5.45915741497717e-06
-4.59438392801316e-06
-6.37389107774995e-07
-4.82348897999369e-06
3.7448093211136e-06
-4.38187702943977e-06
7.2975295597164e-06
-3.55587858227704e-06
1.12512027736685e-05
-3.95381476461306e-06
1.50607839955508e-05
-3.81186147082611e-06
1.89570162404736e-05
-3.89521768175406e-06
2.30322057170561e-05
-4.07581388885462e-06
2.59228076812824e-05
-2.89005956335413e-06
2.88860301725574e-05
-2.96417553274481e-06
3.17101895338184e-05
-2.8237875024798e-06
3.3541458367375e-05
-1.83207093873631e-06
3.4801395394281e-05
-1.25943475721985e-06
3.67642275352292e-05
-1.96325605169182e-06
3.83651702743787e-05
-1.60066371555365e-06
3.96173985628208e-05
-1.25263971769341e-06
4.08908297655232e-05
-1.27357311244193e-06
4.1797363971005e-05
-9.07032369785425e-07
4.2288849292661e-05
-4.91671996902313e-07
4.21558071722469e-05
1.32831765899218e-07
4.20109785698912e-05
1.44410219399797e-07
4.21059708604454e-05
-9.51024750002296e-08
4.19956909337642e-05
1.09774727051371e-07
4.15182269687898e-05
4.77610190900681e-07
3.99808846879671e-05
1.53705912337948e-06
3.80760221970819e-05
1.90532959170782e-06
3.58810294948699e-05
2.19433279767702e-06
3.25470488569671e-05
3.33426234430743e-06
2.86616520976007e-05
3.88499467539052e-06
2.44323186717457e-05
4.23004321987558e-06
1.81771774610119e-05
6.25466288623402e-06
5.07019944704715e-06
1.31075738428313e-05
-5.72236050654297e-06
1.07920644981555e-05
-1.49049573193336e-06
-4.23130704665476e-06
6.2178353916631e-06
-7.70903652005456e-06
1.46270026248636e-05
-8.4086485915729e-06
2.24000582202313e-05
-7.77332129970752e-06
3.02555206992884e-05
-7.85552361351406e-06
3.85436619435558e-05
-8.28828687185002e-06
4.35923730990635e-05
-5.04861596191121e-06
5.06535989811312e-05
-7.06160975650781e-06
5.58133801778863e-05
-5.16024412606467e-06
5.97596231867766e-05
-3.94760446206593e-06
6.36851432227683e-05
-3.92365386053849e-06
6.47262087284175e-05
-1.04125775626655e-06
6.5679270928872e-05
-9.52830964145502e-07
6.59084896478277e-05
-2.29534161265269e-07
6.48662118598337e-05
1.03937520658779e-06
6.58530918509348e-05
-9.83493237333979e-07
7.37288806066324e-05
-7.87588644551363e-06
8.41498172226346e-05
-1.04204346597898e-05
9.76213615791897e-05
-1.34711344002912e-05
0.000116290671155125
-1.8669415201339e-05
0.000146430857915795
-3.01394701465515e-05
0.000180177037100158
-3.3745843883241e-05
0.000205840250194391
-2.56638380759381e-05
0.000148962563013224
5.68790803151778e-05
5.3184638002713e-05
9.57920415923557e-05
-2.63735977048269e-05
7.96653730876654e-05
1.3971317315303e-05
4.27045386390085e-05
-4.70086789025575e-05
7.82305995743402e-05
-7.83441763521007e-05
6.38776825230169e-05
2.44760987445047e-06
6.13143937007122e-06
8.5209698473199e-05
-3.47846126416596e-05
6.51575332978287e-05
-4.09294483643196e-05
1.10213404815788e-05
-3.57447186679919e-05
-7.35172100082245e-06
-3.15472100592592e-05
-6.19511863811758e-06
-2.81351420648216e-05
-5.40137696448254e-06
-2.60302500831198e-05
-3.5512682759483e-06
-2.51120762398646e-05
-1.88798884912482e-06
-2.60569636485586e-05
6.41225660061095e-07
-2.96552013981847e-05
4.37206743445227e-06
-3.58537954512709e-05
7.9984513068627e-06
-4.41514683900544e-05
1.08792463389625e-05
-5.51465098204542e-05
1.49182747367486e-05
-6.82600180465876e-05
1.77218717441979e-05
-8.1852920556619e-05
1.83159517927635e-05
-9.63418221756098e-05
2.01329827945288e-05
-0.000109998255693723
1.91507929674271e-05
-0.000124034112690009
2.0477396203266e-05
-0.000135464677434565
1.58161193737209e-05
-0.000145129281257089
1.42560352027606e-05
-0.000151285596602732
8.84988094144404e-06
-0.000153532778523929
3.02297103665667e-06
-0.000152623805398918
-3.26992094882444e-06
-0.000155842621133416
1.60670113425414e-07
-0.000180438842820555
3.90534370051727e-05
-0.000211051159480717
5.05541589811776e-05
-0.000232659214572331
3.39866282437966e-05
-0.000247747842179829
2.50784061561733e-05
-0.000257417131556274
1.72670357498276e-05
-0.000263680374810631
1.18614716865198e-05
-0.000266133103777821
6.0931255976179e-06
-0.000265091166581059
6.79048008492068e-07
-0.000261441738494087
-3.6486859992681e-06
-0.000255464078457529
-6.87841026041446e-06
-0.000247822152959127
-9.27074583316829e-06
-0.000237879098940999
-1.49874198204708e-05
-0.00022877443317394
-1.22933154993781e-05
-0.000219697754538664
-1.2102358667346e-05
-0.000208545198234176
-1.60812864339183e-05
-0.000196579218009617
-1.71239955297328e-05
-0.000183980730369632
-1.8867979057436e-05
-0.000171685847845319
-1.70685088614187e-05
-0.000158138213931513
-2.01445053384712e-05
-0.000144729986472883
-1.96844774281129e-05
-0.000132404666037775
-1.76147690875587e-05
-0.000120490491426949
-1.740568307036e-05
-0.000107122373574009
-2.02223146538006e-05
-9.42773374402695e-05
-1.88711696153258e-05
-8.24119760691735e-05
-1.71816780006183e-05
-6.91194350737119e-05
-2.03110610827887e-05
-5.6490656366525e-05
-1.90855904954503e-05
-4.56329048177817e-05
-1.56811897251393e-05
-3.47354014587138e-05
-1.62810369926888e-05
-2.46327636200313e-05
-1.46299212188916e-05
-1.40625264689896e-05
-1.56453120284082e-05
-3.17035232642729e-06
-1.64008438238159e-05
6.84140016214498e-06
-1.45282132287379e-05
1.68307345174e-05
-1.4582528042912e-05
2.69367404171554e-05
-1.49303794469857e-05
3.60957976070662e-05
-1.35407478958109e-05
4.41529227331276e-05
-1.16146056728969e-05
5.25363511680277e-05
-1.23372847171923e-05
6.09104757624756e-05
-1.2187154976289e-05
6.9510021281794e-05
-1.24942262288778e-05
7.80352408893767e-05
-1.26013660786149e-05
8.51860288815853e-05
-1.00405666377403e-05
9.20310273074575e-05
-9.80968140341312e-06
9.81589798290394e-05
-8.95154675976527e-06
0.000103007289437615
-6.68081552423869e-06
0.000107016389879843
-5.26827326388604e-06
0.000111174598555574
-6.12170140110643e-06
0.000115140695598153
-5.56661956047147e-06
0.00011876850912915
-4.88068279246741e-06
0.000121740099867819
-4.24524604066519e-06
0.000124252676055095
-3.41988581657129e-06
0.000125791188465822
-2.03029059498235e-06
0.000126283870851215
-3.5997370421317e-07
0.000126721940849214
-2.93892491767031e-07
0.000126921907536292
-2.95138140076013e-07
0.0001269434220038
8.79778077484302e-08
0.000126332301499383
1.08879923207717e-06
0.000123831064309498
4.03812633387503e-06
0.000120000645934967
5.73598408451488e-06
0.000114947207109072
7.24740193335642e-06
0.000107629626338203
1.0651991460912e-05
9.91231450088116e-05
1.23912388147026e-05
8.86827914955475e-05
1.4670782107763e-05
7.39771109805833e-05
2.09600639643277e-05
5.27465416114966e-05
3.43384689943873e-05
3.73966309083592e-05
2.61416896540168e-05
4.16367686401379e-05
-8.47114556593006e-06
5.32066399313111e-05
-1.92792881971975e-05
6.69318294714946e-05
-2.21335663719264e-05
8.08492081209241e-05
-2.16908415913905e-05
9.53580418169383e-05
-2.236438765376e-05
0.000109785685301924
-2.27160102302297e-05
0.000122313273931747
-1.75761515905457e-05
0.000136708524033195
-2.14570657988766e-05
0.000149682084797395
-1.81340546317819e-05
0.000160984877483964
-1.52511638322982e-05
0.000171435369333737
-1.43730907037553e-05
0.000179270460105728
-8.87646921149789e-06
0.00018524938949465
-6.93163083841921e-06
0.000189692966889508
-4.67329478540785e-06
0.000193097793728857
-2.3672133374346e-06
0.000196378734971323
-4.26238603168719e-06
0.000208791050004296
-2.02883010771045e-05
0.000228953285075041
-3.05823887292067e-05
0.000256609200282948
-4.11268382101196e-05
0.000296040626939457
-5.81009638673047e-05
0.00034992185846824
-8.40203322665799e-05
0.000404557671745483
-8.83815668285431e-05
0.000435554151343247
-5.66608302416099e-05
0.000361561310566395
0.000130872332685914
0.000207795325557683
0.000249565932886753
5.88098506013406e-05
0.000228720750854366
5.53619997253905e-05
0.000138796940370637
-5.56344778705282e-05
0.000146457719241439
-8.60210497520331e-05
8.87680239196376e-05
6.01515029358553e-05
1.29411249712237e-06
0.0001726861727707
-4.83617677322215e-05
0.000114814298074885
-5.28105787937773e-05
1.54703616607851e-05
-4.55033044673169e-05
-1.46603674116303e-05
-4.02354212217745e-05
-1.14630568984991e-05
-3.65560662607154e-05
-9.08084683222708e-06
-3.50039842687535e-05
-5.10329827234189e-06
-3.55012523929455e-05
-1.39063431333849e-06
-3.87563181841168e-05
3.89609841977974e-06
-4.58573660186727e-05
1.14727041218732e-05
-5.70459879047064e-05
1.91877073700316e-05
-7.14266001013052e-05
2.52597332477638e-05
-8.87254521259721e-05
3.22171741604905e-05
-0.000108585692424041
3.75820312034208e-05
-0.000128378992130674
3.81091301957892e-05
-0.00014793336127928
3.96875139682116e-05
-0.000166149200037217
3.73666152416157e-05
-0.000182636656178675
3.69648506476501e-05
-0.000196375547635414
2.955502671855e-05
-0.00020800007582283
2.58805872926722e-05
-0.000215549423705276
1.63992060260232e-05
-0.000219384230130542
6.85777661709375e-06
-0.000221685867977641
-9.68275022224187e-07
-0.000230562117637564
9.03701989745937e-06
-0.000258885671281444
6.73769674020743e-05
-0.000291781349708972
8.34500694710297e-05
-0.000314698259466389
5.69035057483487e-05
-0.000329826991351109
4.02072767591356e-05
-0.000338851626655915
2.62914917418219e-05
-0.000343085528458144
1.60955608339244e-05
-0.000343179732315986
6.18719037249405e-06
-0.000339505200637515
-2.99515771921857e-06
-0.00033231120679261
-1.08427750336947e-05
-0.000322860054840118
-1.63294017167728e-05
-0.000311772051859776
-2.03590254832551e-05
-0.000297849028358745
-2.89100791218471e-05
-0.000285030626909616
-2.51118307450429e-05
-0.00027225170006
-2.48809700919508e-05
-0.000257226573916049
-3.11066481686809e-05
-0.000241037657685694
-3.33124886003302e-05
-0.000224168295830266
-3.57375460367221e-05
-0.000207800696672589
-3.34359951116161e-05
-0.000189882929653575
-3.80627480349623e-05
-0.000172355199012687
-3.72119310442368e-05
-0.000156272537115852
-3.36976798121882e-05
-0.000139808171314028
-3.38695908243001e-05
-0.000122204295124138
-3.78263270590531e-05
-0.00010591263248763
-3.51626452535145e-05
-9.02367363941013e-05
-3.28579612350629e-05
-7.31711816181202e-05
-3.73760336516622e-05
-5.72265080711053e-05
-3.50302943804601e-05
-4.29597296640263e-05
-2.99473346011637e-05
-2.89724988077341e-05
-3.02684103488811e-05
-1.52247946955984e-05
-2.83767656771764e-05
-1.1966731706808e-06
-2.96735660636442e-05
1.25168498878326e-05
-3.01139291998255e-05
2.55826860956584e-05
-2.75946489128476e-05
3.85706287051953e-05
-2.75698917446998e-05
5.16426363110991e-05
-2.80028083702238e-05
6.3806257538523e-05
-2.57042793418526e-05
7.4803601421809e-05
-2.26127268885927e-05
8.58082757390847e-05
-2.3341984807527e-05
9.67800243846711e-05
-2.31594708216877e-05
0.000108072439356871
-2.37863796257812e-05
0.000119268833582561
-2.37979186638597e-05
0.000129044438588003
-1.98160296077872e-05
0.000138247943505793
-1.90134284587358e-05
0.000146626093117966
-1.7329591426981e-05
0.000153492672080506
-1.35475957848206e-05
0.000159172946621585
-1.09484083111897e-05
0.000165000372508274
-1.19492323499976e-05
0.00017069586834322
-1.12620341354423e-05
0.000175748820952944
-9.93373698073541e-06
0.000180156389209958
-8.65284375170421e-06
0.000183764656100113
-7.02827883529298e-06
0.000186366043792445
-4.63172005162732e-06
0.00018771437217506
-1.7083521279628e-06
0.000188663256058014
-1.24288058999894e-06
0.000189538686778102
-1.17059171284123e-06
0.000189789227169588
-1.62691111274061e-07
0.000189030978394901
1.84709492975103e-06
0.000186372126463852
6.69690768359957e-06
0.000181943963577885
1.01642765512506e-05
0.000175655892335762
1.35353019123393e-05
0.000166862997765546
1.94449703223264e-05
0.000155966714445704
2.32874162710281e-05
0.000142380726121018
2.82569727203996e-05
0.000124015842884733
3.93248203887614e-05
9.9948413769864e-05
5.84060682754024e-05
8.268852173406e-05
4.34014449271386e-05
8.40425427604065e-05
-9.82501192692785e-06
9.48193068087937e-05
-3.00562392653812e-05
0.000109418108682204
-3.67322332889625e-05
0.000125702214244212
-3.79750164125798e-05
0.000143317001239912
-3.99791872007757e-05
0.000161578454559909
-4.09775025095913e-05
0.000179690802750276
-3.56884714243451e-05
0.00019868466005452
-4.04510231526156e-05
0.0002173663436374
-3.6815858359259e-05
0.000234544831004678
-3.24300228725179e-05
0.000250423695350032
-3.02514309906492e-05
0.000264400580266265
-2.28534100198496e-05
0.000275993677409716
-1.85246581413212e-05
0.000285892298378001
-1.45719967888282e-05
0.000295229136114147
-1.17049343358838e-05
0.00030469062022453
-1.37227929543713e-05
0.000318609432560474
-3.42071348826715e-05
0.000340898967859645
-5.28717451641473e-05
0.000375435887671967
-7.56636107521066e-05
0.000425010119834608
-0.000107675211143602
0.00049561649122751
-0.000154626451703896
0.000582639575332434
-0.000175404512608941
0.000641583920326175
-0.000115605279636378
0.000571164488568602
0.000201292178362009
0.000386376944431862
0.000434357952585431
0.000202506702904026
0.000412629777616955
0.000127653761829989
0.000236637041420248
-4.50629664594504e-05
0.000225710310438477
-7.5102945984318e-05
0.000136747325416379
0.00014912114346437
1.42288951992524e-05
0.000295206209932119
-5.53594599712973e-05
0.000184403331507809
-6.34739638170865e-05
2.35850975141622e-05
-5.53111643256773e-05
-2.28240366389324e-05
-4.89382918667499e-05
-1.78358906790304e-05
-4.51531834415405e-05
-1.2866014145976e-05
-4.42733623904381e-05
-5.98301921623276e-06
-4.63431712769734e-05
6.79248592256492e-07
-5.19993034140617e-05
9.55213070776711e-06
-6.22661849492563e-05
2.17393476646778e-05
-7.74276491212796e-05
3.43495991663365e-05
-9.6246036918455e-05
4.40780377616836e-05
-0.000117780116581217
5.37512973246701e-05
-0.000141658585596661
6.1460462435753e-05
-0.000164914922241057
6.13654038014958e-05
-0.000187241491620241
6.20141939551371e-05
-0.000207744172165313
5.78692955720311e-05
-0.000225961108731925
5.51817992813302e-05
-0.000241595570358002
4.51895157078214e-05
-0.000254591966109805
3.88770183493599e-05
-0.000264064696443109
2.58719342195916e-05
-0.000270491522669268
1.32846202363162e-05
-0.000276438283657297
4.97850197729252e-06
-0.000289944559744118
2.25433565347529e-05
-0.000319905685358698
9.73380872860313e-05
-0.00035181784792124
0.000115362375961784
-0.000373674521367355
7.87601631684618e-05
-0.000387145561620729
5.36784072636263e-05
-0.000393913265250827
3.30590929436694e-05
-0.000396001082959415
1.81834972338695e-05
-0.000393909363553452
4.0953948790276e-06
-0.00038787855380591
-9.02577169760103e-06
-0.000378076411575727
-2.06449726187709e-05
-0.000365313574002973
-2.90921366556258e-05
-0.000351054855077611
-3.4617901557485e-05
-0.000334939484796538
-4.50252333661517e-05
-0.000319200502947434
-4.08508807133357e-05
-0.000303571070564649
-4.05102128171874e-05
-0.0002859420497285
-4.87358066674856e-05
-0.00026692502613059
-5.23292610462951e-05
-0.000247327858538709
-5.53348350951728e-05
-0.000227891956643137
-5.2871824540459e-05
-0.000207352320838721
-5.86026598408046e-05
-0.000186862337357668
-5.77017500604687e-05
-0.000167605244989561
-5.29549223992935e-05
-0.000148353020215955
-5.31215529213694e-05
-0.000128125700256917
-5.80537378467801e-05
-0.000108907537525714
-5.43807072059492e-05
-9.04072207455808e-05
-5.13585172214517e-05
-7.10237254581655e-05
-5.67592057629874e-05
-5.27471083116506e-05
-5.33069497621832e-05
-3.59997565880196e-05
-4.66943422174353e-05
-1.96953760036257e-05
-4.65728999157422e-05
-3.38926740198803e-06
-4.46824047648861e-05
1.2949718414201e-05
-4.60126498796768e-05
2.85963917218145e-05
-4.57603659574004e-05
4.38821350272157e-05
-4.28807422935925e-05
5.91213956974185e-05
-4.28088292107606e-05
7.42303741307238e-05
-4.31120292931617e-05
8.83129428213389e-05
-3.97867891976439e-05
0.000101313270322274
-3.56134869352231e-05
0.000114257293342473
-3.62860110403967e-05
0.00012715313177588
-3.60556279280615e-05
0.000140330697905643
-3.69637937114743e-05
0.000153268372561311
-3.67356900270113e-05
0.000164948281351942
-3.14958618881164e-05
0.000175927712176473
-2.99930073526744e-05
0.000185729840400368
-2.71316644040808e-05
0.000194010027675791
-2.18279074950317e-05
0.000201189097274416
-1.81274040429639e-05
0.000208290458008395
-1.90506635257041e-05
0.000215057556088063
-1.80290935957982e-05
0.000221184543180624
-1.60607925617131e-05
0.00022661300018491
-1.40813262462677e-05
0.000231194054118447
-1.16094157555761e-05
0.000234667564483536
-8.10526302813593e-06
0.00023688068604286
-3.9215123641221e-06
0.000238517512401368
-2.87977555957695e-06
0.000239710596778432
-2.36369889921985e-06
0.000240325178077099
-7.77355642165122e-07
0.000239938441540473
2.23384819426057e-06
0.000237498761098065
9.1365358260359e-06
0.000233021529302133
1.46415679758708e-05
0.000226272818719209
2.02839065813857e-05
0.000216854835554048
2.88629929179813e-05
0.000205104446281657
3.50377353212491e-05
0.000190156963465807
4.32045617452938e-05
0.000170127787004816
5.9353918329634e-05
0.000144925951786835
8.36079916968931e-05
0.000125821498282801
6.25058171855511e-05
0.00012389330459165
-7.89673717270942e-06
0.000132595129336742
-3.87581713848113e-05
0.000146494829135531
-5.06318619224533e-05
0.000163307906545327
-5.47881352196705e-05
0.00018219457247539
-5.88658598853977e-05
0.000201767789070174
-6.0550742373022e-05
0.0002222946766875
-5.62153415779049e-05
0.000243939908747772
-6.20963071063393e-05
0.000265779882356895
-5.8655893238296e-05
0.000286783069995201
-5.34334172916952e-05
0.000306391037954774
-4.98591184495917e-05
0.000324201198223815
-4.06636099995823e-05
0.000339041040041461
-3.33644653673915e-05
0.000352203647483629
-2.77346444341447e-05
0.000365494109490717
-2.49958859048173e-05
0.000379088944830026
-2.73170731260133e-05
0.00039890406068824
-5.40222986139473e-05
0.000428426804533022
-8.23944316964702e-05
0.000471871779179451
-0.00011910855414591
0.000531416528949531
-0.000167220021758122
0.000609312036007079
-0.000232521900654226
0.000704789928003541
-0.000270882432366306
0.000774928473608072
-0.000185744019309108
0.000728116440996451
0.000248104088079572
0.000551509188711597
0.00061096689876094
0.000348815097137208
0.000615345319188029
0.0002292375612368
0.00033921551352121
-1.42393794173281e-05
0.000313347682259775
-4.92419006240318e-05
0.00020220906464299
0.000260264920753674
4.38438659338755e-05
0.000453572544600526
-5.47223656851632e-05
0.000282970026927911
-7.24716010309008e-05
4.13344541777644e-05
-6.54263494162634e-05
-2.98700451369472e-05
-5.86563484163753e-05
-2.46059657009449e-05
-5.49701341103087e-05
-1.6552287444556e-05
-5.48816674276393e-05
-6.07144337396419e-06
-5.85347200388053e-05
4.33233552585646e-06
-6.63727429542266e-05
1.73900700906923e-05
-7.93560259087752e-05
3.47224585850028e-05
-9.7578202451631e-05
5.25720340024656e-05
-0.000119582248266219
6.608201769372e-05
-0.000143860764139641
7.80298299457018e-05
-0.000170052041335345
8.7651701219943e-05
-0.000195464694854546
8.67780026121447e-05
-0.000219556214361787
8.61057739774034e-05
-0.00024136707787726
7.96801442081241e-05
-0.000260357558988306
7.41722737736773e-05
-0.000277387861924622
6.22198216563424e-05
-0.000292098458507708
5.35876222950808e-05
-0.000303683823598712
3.74572835844553e-05
-0.00031297382032387
2.25746135086295e-05
-0.000322669217249972
1.46738980189118e-05
-0.000339704474636083
3.95786514198263e-05
-0.00036975581526979
0.000127389417756276
-0.000399336067765043
0.000144942724696643
-0.000418807396234619
9.82314770408682e-05
-0.000429955834647983
6.48268998966783e-05
-0.000434443330058489
3.75465104402367e-05
-0.00043410198514686
1.78422269744392e-05
-0.000429630384359634
-3.76261748908496e-07
-0.000421369316704109
-1.72867107839436e-05
-0.000409414481065723
-3.25998501871924e-05
-0.000394434248712173
-4.40723045651784e-05
-0.000377694613840674
-5.135764679995e-05
-0.000359340765176786
-6.33789396826255e-05
-0.000341419868323127
-5.87718252092005e-05
-0.000323519838138777
-5.84101158522026e-05
-0.000303797184262755
-6.84585523003513e-05
-0.000282736657063877
-7.33896227116124e-05
-0.000261013596120775
-7.70579834039525e-05
-0.000239299823522593
-7.45855561727115e-05
-0.000216622089629832
-8.1280586154875e-05
-0.000193949759982131
-8.03739720240867e-05
-0.000172347679182196
-7.45571030150019e-05
-0.000150860772980268
-7.4608278837441e-05
-0.000128651937015375
-8.02626314419308e-05
-0.000107288947636776
-7.57436271756648e-05
-8.66384017334666e-05
-7.20092138330122e-05
-6.55513312632388e-05
-7.78460389047813e-05
-4.55713096556156e-05
-7.32869669100637e-05
-2.69649235511504e-05
-6.53004719921835e-05
-8.78882967786482e-06
-6.47490376364207e-05
9.5689395389655e-06
-6.30398318863925e-05
2.77143986549655e-05
-6.41581492170876e-05
4.48463747911094e-05
-6.28921706955737e-05
6.17999672574543e-05
-5.98345576682676e-05
7.87101795275545e-05
-5.97188189896019e-05
9.53194571460473e-05
-5.97214654116084e-05
0.000110910747475423
-5.53780477003806e-05
0.000125487155089294
-5.01901944558205e-05
0.000139975989345316
-5.07748602739722e-05
0.000154369199565642
-5.04490544564031e-05
0.00016892450593983
-5.15190006543586e-05
0.000183204250579082
-5.10154958312345e-05
0.000196368014775022
-4.46595722797968e-05
0.000208609156098206
-4.22342430062662e-05
0.000219522485679836
-3.80449491276469e-05
0.000229056132014211
-3.13616256592147e-05
0.000237454006955035
-2.65252207342798e-05
0.000245569045629435
-2.7165738959903e-05
0.000253262097062941
-2.57221093649778e-05
0.000260296376305879
-2.30951077870072e-05
0.000266615061184921
-2.04000197788797e-05
0.000272009894704316
-1.70042961221909e-05
0.000276354684626723
-1.24500665523707e-05
0.000279450457086974
-7.01730184373558e-06
0.000281679918160838
-5.10927397463327e-06
0.000283374142426153
-4.05792926822422e-06
0.000284393321381094
-1.79658088903255e-06
0.00028422446119585
2.40273101569486e-06
0.000282069788073635
1.12911871240839e-05
0.000277850490213241
1.88609186090913e-05
0.000271177620353313
2.69567145723452e-05
0.000261656291925549
3.83843569432421e-05
0.000249523601438236
4.71703903552702e-05
0.000234011530594064
5.87167160991985e-05
0.000213427760935904
7.99376465102829e-05
0.000187820802423985
0.000109215019629223
0.00016717327655653
8.31532934508357e-05
0.000162177899046448
-2.90129812223789e-06
0.000168389754686491
-4.49701010313312e-05
0.000180920868776884
-6.31629268079775e-05
0.000197339267461104
-7.12065640876715e-05
0.000216174773376505
-7.77013708125953e-05
0.000236272795983609
-8.06487813265508e-05
0.000258557579578642
-7.85001120805458e-05
0.00028192032593923
-8.54590900812315e-05
0.000305446016844327
-8.21816263918934e-05
0.000328663106030665
-7.66506421501754e-05
0.000350923296952397
-7.21191138524529e-05
0.000371341480242844
-6.10818164632067e-05
0.00038867521352837
-5.06981691224787e-05
0.0004043493607682
-4.34088117870078e-05
0.00042006154170506
-4.07083889772493e-05
0.00043728541675343
-4.45405463721784e-05
0.000458812372974473
-7.55492606638354e-05
0.000492129191716698
-0.000115711181710365
0.00054072966834714
-0.000167708976141792
0.000605861209578409
-0.000232351560533617
0.000690128657999739
-0.000316789248564742
0.0007889525197007
-0.00036970622708368
0.000865689584817947
-0.000262481079461404
0.000845863917384027
0.000267929907180606
0.000697903409356695
0.00075892891776891
0.000495213486789246
0.000818051636917529
0.000354393927003344
0.00044639517682804
3.65958712021201e-05
0.000406482232549371
-9.33363057973764e-06
0.000280395231392745
0.00038635486749096
8.89510879030037e-05
0.000645017576362025
-4.58032820998828e-05
0.000417724817742562
-7.98079130679209e-05
7.53392682157561e-05
-7.62535805934209e-05
-3.34248400382728e-05
-6.97373441430136e-05
-3.11221849805855e-05
-6.63978334268825e-05
-1.98918236737443e-05
-6.70253048788639e-05
-5.4438912728325e-06
-7.21101927903601e-05
9.41726768192649e-06
-8.18186171448249e-05
2.70984567999991e-05
-9.69679878056813e-05
4.9871726793886e-05
-0.000117504074136128
7.3108335753671e-05
-0.000141814843835845
9.03927383145515e-05
-0.00016792636231096
0.000104141373560092
-0.000195257552469474
0.000114982874700439
-0.000221612056370434
0.000113132477934749
-0.000246649989834171
0.000111143763781053
-0.000269255214363723
0.000102285368600967
-0.000289216462408322
9.41335301328965e-05
-0.000307565877412433
8.05692555840422e-05
-0.000323628365707332
6.9650134767204e-05
-0.000337248410982975
5.10773300762516e-05
-0.000349351461652959
3.46776777130092e-05
-0.000362441296824393
2.77637439849123e-05
-0.000381987170709123
5.91245562590647e-05
-0.000411075714859578
0.00015647796327723
-0.0004375566292431
0.000171423714434684
-0.000454280001281644
0.000114954843725867
-0.000462971748108572
7.3518691890132e-05
-0.000465118345986127
3.96930579308043e-05
-0.000462555290497178
1.52792316392347e-05
-0.00045601534482692
-6.91623975187207e-06
-0.000445742977317209
-2.75589830698098e-05
-0.000431880545366401
-4.64623090947647e-05
-0.000415004472626274
-6.09483247692173e-05
-0.000396322846132257
-7.00393455509952e-05
-0.000376181965690145
-8.35197163605935e-05
-0.000356337861216735
-7.86159620896236e-05
-0.000336558477427983
-7.81894046624572e-05
-0.000315111312928214
-8.99057792594872e-05
-0.000292381489206073
-9.61193251417683e-05
-0.000269020559718765
-0.000100418975409314
-0.000245539025058099
-9.80670584943039e-05
-0.000221208350944844
-0.000105611397204735
-0.000196845405086207
-0.000104736839724074
-0.000173357702347354
-9.80448804179345e-05
-0.000150082989339806
-9.78828659874743e-05
-0.000126306505992393
-0.000104039165083698
-0.000103152860895629
-9.88972318308348e-05
-8.06984472359101e-05
-9.44637475092057e-05
-5.82384177904135e-05
-0.000100305907481136
-3.68489582486252e-05
-9.46764358420017e-05
-1.67062771485571e-05
-8.54429855721585e-05
3.02436915938541e-06
-8.44797339974128e-05
2.30482479859032e-05
-8.30634836879927e-05
4.26967184229322e-05
-8.38066642592411e-05
6.11211041026452e-05
-8.13164466537132e-05
7.94204008520087e-05
-7.8134022534396e-05
9.76586604374191e-05
-7.79569259269286e-05
0.000115472252150806
-7.75351734123146e-05
0.00013230143081522
-7.22072029343472e-05
0.000148188388271199
-6.60773632622172e-05
0.000163988469461385
-6.65749487861535e-05
0.000179644100676126
-6.61048384651852e-05
0.000195320463022242
-6.71952925939144e-05
0.000210701298739316
-6.63963808151738e-05
0.0002250929595234
-5.90512012736228e-05
0.000238336777037826
-5.54781373070854e-05
0.000250148270919209
-4.98564173828134e-05
0.000260772324977206
-4.19857393585739e-05
0.000270249970924311
-3.60028325266257e-05
0.000279250166796018
-3.61659708932758e-05
0.000287732024979158
-3.42039510655213e-05
0.000295460106175264
-3.08232251115458e-05
0.000302500777213563
-2.74407071057358e-05
0.000308668798992255
-2.31723625957484e-05
0.000313825107573731
-1.76063948972119e-05
0.000317718985909108
-1.09112029991601e-05
0.000320552020272906
-7.94234510086129e-06
0.000322696638996877
-6.2025629235513e-06
0.000324044145802489
-3.1441311913119e-06
0.000324176620262777
2.27026231213359e-06
0.00032242895576764
1.30388249181391e-05
0.000318591377193104