/*--------------------------------*- C++ -*----------------------------------*\
  =========                 |
  \\      /  F ield         | OpenFOAM: The Open Source CFD Toolbox
   \\    /   O peration     | Website:  https://openfoam.org
    \\  /    A nd           | Version:  7
     \\/     M anipulation  |
\*---------------------------------------------------------------------------*/
FoamFile
{
    version     2.0;
    format      ascii;
    class       volScalarField;
    location    "2000";
    object      PkDelta;
}
// * * * * * * * * * * * * * * * * * * * * * * * * * * * * * * * * * * * * * //

dimensions      [0 2 -3 0 0 0 0];

internalField   nonuniform List<scalar> 
15600
(
2.48577589575637e-05
0.000348913228102936
0.000346787593085877
-1.24138336310578e-05
-0.000120393565020903
-0.000129374548811184
-4.38009448356758e-05
-2.26411415798613e-05
-7.99668921690335e-06
-2.79801819242278e-06
-2.34593881245554e-06
2.57631300213338e-06
7.21195779425916e-06
9.63865999459868e-06
8.92309727060906e-06
4.29533668084412e-06
8.39403947942757e-06
3.30160311388699e-05
3.89582811828454e-05
9.64773804968606e-05
0.000153059304153242
0.000151004499795584
0.000132815744967863
9.74341596182661e-05
3.14745621384726e-05
2.65560323013752e-05
-9.90965734339673e-05
7.87661425109968e-05
-8.15051165932622e-05
-0.000337110121408408
-0.000647439256984247
-0.000925388336095098
-0.00115917111415055
-0.0014624005522789
-0.00165284169834893
-0.00179592832962843
-0.00182947829519081
-0.00184516056301205
-0.00189248632706783
-0.00178353487045336
-0.00167437790650165
-0.00168359790817217
-0.00151334101593818
-0.00140571667098707
-0.00126233510471576
-0.001182234185005
-0.00107447981338982
-0.000974962636180014
-0.000782817560434603
-0.000716035103458671
-0.000620403666994196
-0.000550156468214401
-0.000457351705993477
-0.000376736478731204
-0.000305886429030977
-0.000276438927202367
-0.0002384157019137
-0.000205339360392551
-0.000218082234296243
-0.000169613009186118
-0.000154012596172417
-0.000168520876629418
-0.000132050287977331
-0.000100913039113783
-0.000114534637049155
-0.000123554642401295
-0.000118842847452234
-9.71053818179387e-05
-0.000119491897356175
-0.000122237041595799
-6.3969508734833e-05
-1.3423578911775e-05
-0.00010786953630614
-7.65292127288438e-05
7.72638843452112e-06
-0.000126156473926179
-4.87659074981538e-05
9.56918260541314e-06
-4.41027023287436e-05
0.000103247119685266
1.63880070714168e-05
-7.69777955385839e-05
7.62247236982402e-05
7.864126865818e-05
3.91388050771659e-05
4.04723269716946e-05
7.58653924680531e-05
0.000240955205579422
0.000107177190089516
0.000198000050868488
0.000151765484468568
0.000186673859501958
0.000215071503924526
1.81242568153959e-05
-3.53240220814992e-05
-8.81209445670879e-05
-8.83785666521094e-05
-0.000135133195957643
-0.000167426665860282
-0.000108413119587165
-0.000281631259547725
-0.000349919221691716
-0.00037049693106968
-0.000335768809873843
-0.000375173599768977
-0.000428163199421262
-0.000443860210118382
-0.000513990610033144
-0.00056337776337057
-0.000773505862660917
-0.00155337473397023
-0.00186989627423801
-0.00218752785628342
-0.00368996891113959
-0.00618825187116814
-0.00547826040173054
-0.00252621407648094
-0.000702650633922513
0.00038668127439654
0.000600424137609785
-0.00389486433901161
-0.00407662027212498
0.00876943510820253
0.00345931014140029
-0.00140182096041876
-0.00198854599551231
-0.000998755618946103
-0.000578659027475148
-0.00027867242577921
-0.000110610469589543
-6.60788132561172e-05
3.1635842866193e-05
8.19491583450398e-05
0.0001464141073703
0.000173198537330257
0.000125460395278925
6.95099431874471e-05
-0.000108486552149766
-0.000194900492969762
-0.000387912622544739
-0.000742462375745085
-0.00086228484671207
-0.00101204499048062
-0.00129888543607555
-0.00151456013655418
-0.00169304344832536
-0.00156537507594046
-0.000792543705975689
-0.00175969417118027
-0.00347955314323661
-0.00519530545806815
-0.00654670626321591
-0.00756637772640002
-0.00877388393458395
-0.00948386631384632
-0.00998942354510152
-0.0100535274635738
-0.0098667721095696
-0.00987501514573378
-0.0091410476425874
-0.00846139404863107
-0.00830297759981583
-0.00771802390799247
-0.00710065784021147
-0.00633389009565084
-0.0060324361154911
-0.00542293891626521
-0.00456472434236119
-0.00404559443013341
-0.00374301502357728
-0.00310875356583759
-0.00266328675359757
-0.00261200239573483
-0.00222836941943195
-0.00180587540829201
-0.0016064530518492
-0.00144434316570573
-0.00142877418350597
-0.00141166444124577
-0.00125378651870709
-0.00125273694622116
-0.00132599369769394
-0.00127771048206705
-0.00119148731173733
-0.00128667633746629
-0.00138864374361038
-0.00152567710441739
-0.00165209503211135
-0.00160559422119359
-0.00168789285606057
-0.00170126785521967
-0.00163154007842754
-0.00159067171418143
-0.00172443545776199
-0.00183157832707809
-0.00183918599252269
-0.00177683034299814
-0.00176486961236831
-0.00166558668944443
-0.00156484486877789
-0.00150526609629352
-0.00154185805157383
-0.00151038061088931
-0.00136280240789334
-0.00110662296447926
-0.000900113905948302
-0.000682760486403084
-0.000310560118041821
-0.000141348072984117
0.000153761561158745
0.00052739925215283
0.000906470998464644
0.000804078818229978
-8.35616755238099e-05
-0.000668530722874713
-0.00111440064735434
-0.00163579133470858
-0.00251954721306036
-0.00350997153926928
-0.00480710459348965
-0.00674964400885445
-0.00873093443080485
-0.0115644444914775
-0.0136411179323968
-0.0168533929671433
-0.0192839014576029
-0.022564515829851
-0.0253242215100429
-0.0303840770518129
-0.0341541259325169
-0.0406080298598247
-0.0571509073829526
-0.0818817867123777
-0.103174889178734
-0.164774683121264
-0.251548025715375
-0.184283184916148
-0.0592273610811343
-0.00319192426999021
0.00290819590725597
-0.056603836611694
-0.0602573522724459
-0.00201484838816409
0.0150603359690097
0.000885745072005666
-0.00379617508886301
-0.00253603866208313
-0.00154531378921313
-0.000902856127344907
-0.000473824535663774
-0.000290103373507406
-7.37009266716677e-05
9.53708716434957e-05
0.000260860261335048
0.00026241576406917
4.40124540408999e-05
-0.000108874769699638
-0.000691985795980261
-0.0010391562258698
-0.0014278790834554
-0.00198169643177657
-0.00214285420312118
-0.00231619343241803
-0.00267285279734147
-0.0029059738424254
-0.00311981689840688
-0.00288257260808103
-0.00206066793916824
-0.00306915191627189
-0.00464493328744536
-0.00615802423221967
-0.00700253833513213
-0.00770574322598332
-0.00842977746932381
-0.00876588150838149
-0.00912848692655782
-0.00929612596557831
-0.00862417987459855
-0.00855122074749125
-0.00810348236661511
-0.00713291227611326
-0.00722770284900754
-0.0068705337594829
-0.00661975702606251
-0.0058823318286547
-0.00576176537727376
-0.00548484561319835
-0.00459122684459628
-0.0042235554081163
-0.00422911459568044
-0.00373563574113701
-0.00327513473144592
-0.00346344658149694
-0.00316202912774462
-0.0027563359729705
-0.0026250745870889
-0.00256154151313554
-0.00266818474283694
-0.00262546307402798
-0.00253616275064493
-0.00263800100828177
-0.0027715266978715
-0.00267291613947639
-0.00253833636622296
-0.00269328632302632
-0.00286933267856881
-0.00311412484248711
-0.00326364419237343
-0.00312319055282477
-0.00329317405056767
-0.00325082502079934
-0.00307325591869099
-0.00299827748660116
-0.00331101423497711
-0.00339027240699864
-0.00339300355731981
-0.00338496490907366
-0.00333551046541369
-0.0032420807368517
-0.00306745495952911
-0.0031262460187275
-0.00305948026619919
-0.00314809169859876
-0.00305930182603173
-0.00264152380874047
-0.00231438307500012
-0.00198442252538017
-0.00144175008359986
-0.00116783581372703
-0.000704249016532271
6.42347408713324e-05
0.000735821128945697
0.000677279217342227
-0.000601032001470498
-0.00165966808766072
-0.00263974163327123
-0.00372492385144245
-0.00531832059867498
-0.00684749147203632
-0.00878680367872894
-0.0119618734711251
-0.0154452719228978
-0.0196209101588317
-0.0238025008704413
-0.0304095038393533
-0.0363739789420409
-0.0427940169835286
-0.0504756400440597
-0.0635725106854404
-0.077242637893487
-0.0872764937216839
-0.13138635134455
-0.19394239006837
-0.310289415397356
-0.450060546102263
-0.504694490533121
-0.422898577842994
-0.280768528519587
-0.116510408127591
-0.0496927515412874
-0.162939318150633
-0.15112114492551
-0.0556396010104605
0.0133542382385137
0.00792389298932624
-0.0039926941407558
-0.00454681982203436
-0.00286537974756008
-0.00186654691318402
-0.00123253726902298
-0.000791182822002314
-0.000504968646559432
-0.000221587159566296
3.73726146843407e-05
3.71332506841314e-05
-0.000215053263257895
-0.000297079844507894
-0.000775985635931844
-0.00114341340730035
-0.00146686474988148
-0.00193448087330117
-0.0020740891661966
-0.00211483720831494
-0.00246131453996805
-0.00264657232675379
-0.0029156102249971
-0.00265273071163816
-0.00183362428510306
-0.00222467532728328
-0.00316563663393346
-0.00397866775256857
-0.00462310071399354
-0.0049506991858358
-0.00525165196815724
-0.00550124512869075
-0.00579536287070941
-0.00608806906325562
-0.005887925069341
-0.00589070226155504
-0.00541999931722901
-0.00503318361774493
-0.00507301638365822
-0.00518552231847103
-0.00509919936665315
-0.00479137188120799
-0.00491356948254462
-0.00477161784379321
-0.00431288709545656
-0.00416129362866434
-0.004265571682202
-0.00392087867812827
-0.00364229242376428
-0.00386900802908709
-0.00362315495710375
-0.00332017811342891
-0.00328415287098738
-0.00332215393098406
-0.00342653427013037
-0.00329456235844892
-0.00326066618709119
-0.00339247364172205
-0.00347737534354046
-0.00332098500925718
-0.00316510358073333
-0.00327583321377768
-0.00340792990019007
-0.00361632847341008
-0.00369495810703355
-0.00354185492221263
-0.00359588152255823
-0.0034341080158307
-0.00324280785158337
-0.00314284996040864
-0.00336613209423773
-0.00342800560986222
-0.00341136770528674
-0.00331988307738719
-0.00328136089011294
-0.00313563477347754
-0.00300852030751647
-0.00298871931267444
-0.0029641328803204
-0.00311778102591474
-0.00298950281938902
-0.00253066973517345
-0.00223116353663138
-0.00189311496380416
-0.00141277409252074
-0.00116171072144693
-0.000729016003349028
3.86930490866156e-05
0.00060553881400484
0.000472215353707781
-0.000756925973442982
-0.00189270350122586
-0.00308142888986364
-0.00428670554206123
-0.00590424765311505
-0.0072675474100048
-0.00902921126326359
-0.0118102091511103
-0.0145230009544148
-0.0172560821480501
-0.0212469595974959
-0.0254971367547367
-0.030240977700238
-0.0370127363440585
-0.0456818557313062
-0.0581919252288301
-0.0845128279111469
-0.109379720696451
-0.146178387652384
-0.188980008307104
-0.282966905203241
-0.284075698263764
-0.294544170253813
-0.301057223336715
-0.31313336142439
-0.283275189044094
-0.186998478091297
-0.227044956756127
-0.195917870583418
-0.0979683192908113
-0.0172576820331712
0.0156016528619795
-0.0013344935292092
-0.0059146802399449
-0.00444658115473293
-0.00307946686386195
-0.00221377459730536
-0.0015481424791352
-0.00118015722905549
-0.000760743120072823
-0.000367557857586589
-0.000143331345417109
-0.000158069767551103
-0.000109223259138026
-0.000246110886076966
-0.000549834656097437
-0.000776320647480797
-0.00126969339766208
-0.00150866504188681
-0.00152849888221842
-0.00182817745375501
-0.00196800087139934
-0.00215333135827252
-0.00180859512569348
-0.00105342080478771
-0.00111511594626438
-0.0016415456911981
-0.00220483525752542
-0.00265523947971516
-0.00289962207991431
-0.00317417982962157
-0.00345550519060347
-0.00378250734748706
-0.00411616814440196
-0.00410914190555636
-0.00429198490436996
-0.00399317817636614
-0.00379610731745096
-0.00397693477842835
-0.00417053872685483
-0.00427733105885705
-0.0041639303281314
-0.00444278816307849
-0.00442995083001296
-0.00420687183570761
-0.00415250366517743
-0.0042909346075748
-0.00403179540122855
-0.00384404953860615
-0.0040223154096583
-0.00380973948543619
-0.00356999579934074
-0.0035825760430816
-0.00368521592023079
-0.00374244351375588
-0.00356221394329418
-0.00354487198500152
-0.00366367522836351
-0.00370494941247046
-0.0035172672501922
-0.00335926050174216
-0.00341774867585656
-0.00351945357271033
-0.00367145163958535
-0.00370617001612263
-0.00355141710488926
-0.00350270321238119
-0.00325490401728431
-0.00307516725477072
-0.00295725261267001
-0.00309665687053156
-0.00309840556884602
-0.00303698358493565
-0.00289001196222045
-0.00283701872632461
-0.00269268244472795
-0.00252507372519336
-0.00245226095235324
-0.00243967095270917
-0.00250733832689062
-0.00240179538893007
-0.00199574202695132
-0.00172667264348366
-0.00135435408103497
-0.000869953852126849
-0.000660506071745145
-0.00032150628190346
0.00036926338183147
0.00078451165748735
0.000574890170952703
-0.000545865353712571
-0.00171249739692207
-0.00300266837725345
-0.00425196018840498
-0.00577238681120664
-0.00703771215075779
-0.00853467838168138
-0.0105305425323155
-0.0124723518179777
-0.0143212800613931
-0.0176339013198449
-0.0194927574554281
-0.0223637584398469
-0.0279019779164389
-0.0336063114740248
-0.0411544844457273
-0.0607776795463148
-0.0820445879180708
-0.115863147373714
-0.141287657800065
-0.157759828527606
-0.116995860521345
-0.111366777683493
-0.118629647546579
-0.182938524272804
-0.288846938188085
-0.270324917403375
-0.218287956718294
-0.186153042660348
-0.105683468441112
-0.0551065866462722
0.0181491355566424
0.00282736965983124
-0.00543203259021437
-0.005203395803255
-0.00407023833508122
-0.00309060815785807
-0.00232299548082267
-0.0017971649061385
-0.0011749267959174
-0.000578986792223548
-6.57762573399515e-05
0.000174147349026122
0.000424233790963786
0.000313341122532419
1.88880153638646e-05
-0.000171442145537692
-0.000781534713259484
-0.000936782757492725
-0.00102032948876292
-0.00127914171049678
-0.00134439605781459
-0.00142414423719102
-0.00102415431378641
-0.000346981982750644
-0.000310944592399993
-0.000645526549905587
-0.00106125260688276
-0.0014821600567576
-0.00174977697759218
-0.00199680190461927
-0.00229990607954834
-0.00263521450073323
-0.00302437119884442
-0.00319053843691895
-0.00338066126923487
-0.00327212881011321
-0.00315644212907626
-0.00338513899647186
-0.00361154628127678
-0.00379314135939018
-0.00378311108667259
-0.0040935071975485
-0.00417407571343926
-0.00410736240059919
-0.00407944293347416
-0.00420402484727615
-0.00403846430912707
-0.00389654810155411
-0.00399442129285451
-0.00383502854717069
-0.0036120394423681
-0.00363137685228257
-0.00378499793679473
-0.00380554269335137
-0.00360373362369602
-0.00358293129135158
-0.00367924054333976
-0.00368061379963091
-0.00351363035047198
-0.0033593513347493
-0.00339649668490786
-0.00346868582912965
-0.00357103648338047
-0.00357882493160136
-0.0034308926303806
-0.00328089528721311
-0.00299236466232092
-0.00286295785302623
-0.00272166002047911
-0.00279521747964655
-0.00273888223459323
-0.00266026395049837
-0.00250391891473625
-0.00244240350643703
-0.00228783264963044
-0.00211005384399287
-0.00196891760036938
-0.00195566720754648
-0.00196313546573111
-0.00184986064383098
-0.00149543084981858
-0.00122225925973669
-0.000824456604337782
-0.000364209603551815
-0.000172829715423855
0.000121565930031898
0.000727658456446114
0.00104264461824262
0.000812011068471419
-0.000200177737414732
-0.00141069800827669
-0.00276468397173062
-0.00400690254327626
-0.00544644305705348
-0.00660763762806224
-0.00814625402847651
-0.00946465819848574
-0.0111653625339357
-0.0127417366506409
-0.014906170124547
-0.0160502823497793
-0.0174465698373324
-0.0213291664439978
-0.0251099334703674
-0.0292633103478768
-0.0416539856677105
-0.0435423668165876
-0.0635928661628825
-0.0679305982754194
-0.0692340500887054
-0.0659608001873233
-0.0495910999437979
-0.0342484436167277
-0.0763958943347476
-0.187278311239629
-0.246356878125298
-0.169245373830926
-0.146727028034078
-0.090773451071581
-0.0740026708611862
0.0117391750058972
0.0070400245996714
-0.00330324377235681
-0.00504008919061496
-0.00445857134471372
-0.00373493778518096
-0.00280614908180778
-0.00223435164593424
-0.00131290057420243
-0.000503013757132276
0.000213199479858055
0.000566545466476194
0.000914067602992296
0.000689749010144463
0.000430926190811639
0.000192861356352377
-0.000503580326230347
-0.000548173331675508
-0.000636264128130288
-0.000838510144611175
-0.000842811097673152
-0.000833239952936417
-0.000430815629185171
0.000147486633984821
0.000237897719300804
-4.84129824878158e-06
-0.000337138555376494
-0.000751419411572304
-0.00103849378469996
-0.00129528589725988
-0.00161050657503739
-0.00193972254102756
-0.00232313196377435
-0.00261116733198311
-0.00279222429370458
-0.00281538169869131
-0.00276392561066089
-0.00299565145744034
-0.00322834017565736
-0.00343350209904149
-0.00350037822196104
-0.0037747823951778
-0.00388783003688315
-0.00396256298138085
-0.0039503407670494
-0.0040348432987156
-0.00394782202441724
-0.00384698770202701
-0.00386094223135815
-0.00373964839191101
-0.00353469011291069
-0.00354127925161945
-0.00373588896797066
-0.00373598963084795
-0.00352014859500217
-0.00349029594869587
-0.00356346994911587
-0.00353738548791714
-0.00341857445181859
-0.0032647843285742
-0.00329718045515725
-0.00333739962727149
-0.00339182428167279
-0.00338815609949232
-0.0032429638138895
-0.00302222757348396
-0.00272911274239408
-0.00263902499568533
-0.00247698704203416
-0.00250786603081385
-0.0024235904919475
-0.00231663830981197
-0.00216592056413898
-0.00210152539340055
-0.00195190676470529
-0.00176185700645296
-0.00157166925058208
-0.00155461957345928
-0.00151005416353456
-0.00139404168961779
-0.0010836399751168
-0.000789722066911076
-0.000383742222100366
3.52878079351406e-05
0.000220059249082029
0.000484729430389918
0.00100842976705585
0.001265654315035
0.00105187999275683
0.000154341635211864
-0.00108943423381364
-0.00249698400603877
-0.00370152214145678
-0.00503676880063074
-0.00619331697291814
-0.00800998779189121
-0.00865905405953099
-0.0101634748554178
-0.0117038743757365
-0.0131926305483531
-0.0140483877346729
-0.0146769136052144
-0.0171551028539853
-0.0203401741170367
-0.0238283445364932
-0.030914415551668
-0.0359383606982891
-0.042133942040771
-0.0475604573173714
-0.0478468432093424
-0.0507577053169985
-0.0359763549861697
-0.00832885070907548
-0.0212396605345598
-0.0937999076875957
-0.172191231753655
-0.113556170918012
-0.100672021456491
-0.066725690256355
-0.0690675049058594
-0.002482244795365
0.00995979850659923
-0.000556690232669366
-0.00429649404152448
-0.00433866360339507
-0.0039933169013766
-0.0029080593169665
-0.00233204124920689
-0.00128607693881801
-0.000374353320060348
0.000571895140200289
0.00090611481265003
0.00128379712197728
0.000945292254448659
0.000696322950824164
0.000377564678743559
-0.000250660469621553
-0.000238042628136549
-0.000344985042130468
-0.000497385134605293
-0.000445601112202547
-0.000379849349712154
8.25359150494697e-06
0.000487459423080025
0.000612534106456144
0.000411202810634256
0.000109562770794256
-0.000293322891165879
-0.000593570607398104
-0.000874161256572746
-0.00119878525711588
-0.00150995202041459
-0.00185437982948335
-0.00221070331965228
-0.00238988124886851
-0.00249879277670744
-0.00250236902196054
-0.00271019519015961
-0.00292879222614136
-0.00314383886531142
-0.00327604413194568
-0.00347342554044957
-0.00357191348035493
-0.00377272496524899
-0.00378835852054734
-0.00382053057560973
-0.00379989286367938
-0.00373165469102524
-0.00367993317196455
-0.00358353726944209
-0.00338948236685611
-0.00338286926134172
-0.00360323547710312
-0.00357603916304008
-0.00336384266195607
-0.00332911294319247
-0.0033786344827824
-0.00334372450714611
-0.00327354203167292
-0.00311943190807535
-0.00315387282498083
-0.00316605157041353
-0.00318029340955138
-0.00315873152457598
-0.00302029689100286
-0.00276080463148161
-0.00246633445003568
-0.00240835041650321
-0.0022412540819784
-0.00224698367767572
-0.00215462971056927
-0.00199423079183946
-0.00187259202879568
-0.00181599573882226
-0.00168284810688077
-0.00147249872039608
-0.00125761375028968
-0.0012236046277666
-0.00114277800891362
-0.00102975409936249
-0.000744895567157503
-0.000436778048038033
-3.38610945280022e-05
0.000325768685329976
0.000515160694908308
0.000767040322789274
0.00120720623291821
0.00144016522932356
0.00126744445111088
0.000482473828296741
-0.000792807531374349
-0.00218662470187823
-0.00338559223085367
-0.00461640074945376
-0.0057140124571143
-0.00771958803678467
-0.0081318133811995
-0.00931811082862692
-0.0108239107652964
-0.0119133983132734
-0.0127166483759649
-0.0129222270147344
-0.0151656065747754
-0.0175815112918735
-0.0205260849262339
-0.0253547269431608
-0.0310643493384438
-0.0352167468279166
-0.04205485649392
-0.0415017127641105
-0.0454366869825003
-0.0349961032664968
-0.00518994343397362
0.00140484520737809
-0.0375905718281749
-0.102444394386458
-0.0669415352392639
-0.0606912989223971
-0.0418410405903752
-0.0492477528784576
-0.0188721825079256
0.0104761452286817
0.00190029817671356
-0.00266193536563483
-0.00382693962579703
-0.00370000497419897
-0.0028234465056222
-0.00213038207408797
-0.00107622824160677
-0.000146310707596082
0.000884038199998539
0.00115352448487079
0.00151370464042469
0.00110514041748517
0.000862225948167985
0.000480335147072805
-1.06410603851971e-05
-1.72323062163249e-05
-0.00014432672080936
-0.000239116532193787
-0.000143620556146698
-3.51937764493039e-05
0.000320728648969585
0.000714428198416893
0.000858634111362418
0.00068139661793442
0.000387963152581106
-1.07431375097162e-06
-0.000312516704871256
-0.000620844498769615
-0.000958360366784361
-0.00122663928741146
-0.00152473075889152
-0.00191998166429085
-0.00210557909619666
-0.00228443483922125
-0.00231671814436498
-0.00247772525292014
-0.00267319334865056
-0.00289551489815465
-0.00308912446685924
-0.0031830555686545
-0.00326293438601294
-0.00355154015832734
-0.00359766595757434
-0.00358093554785787
-0.00363339363022398
-0.00357873342514217
-0.00348073809601783
-0.00340844320210072
-0.00321731761491574
-0.00320033737342932
-0.00341708194181083
-0.00336098388224212
-0.00317693210657334
-0.00313919134710349
-0.0031637954889438
-0.00313527439784482
-0.00309259221579094
-0.00295222381523848
-0.00299897656404925
-0.00298208712483086
-0.00296483627580257
-0.0029029501064435
-0.00278680414765498
-0.00249840064903303
-0.00220990524501675
-0.00218058776793546
-0.00202659065261117
-0.00201845368577441
-0.00190936889199375
-0.00170082525530123
-0.00162509226084414
-0.00158210015047846
-0.00145651078188279
-0.00122790409664493
-0.00100339997570288
-0.000948094690005033
-0.000842102065835101
-0.000723677256939269
-0.000461522315715515
-0.000149996504695054
0.000243071608056263
0.000536722679909933
0.000733505141824513
0.000987809165877087
0.00134457723471786
0.00157124494910181
0.00142786724957624
0.000738389269380738
-0.000534980301313674
-0.00187396801399992
-0.00306402691055646
-0.00420286742110097
-0.00528450173509672
-0.00715888454278504
-0.007641770563566
-0.0085962529006002
-0.0100554994665218
-0.0108245329327355
-0.0117685363108109
-0.0117721133688846
-0.0137259922427703
-0.0157696281402231
-0.0181929357592251
-0.0225201510256049
-0.0275339131584431
-0.032121033501593
-0.0386319799747911
-0.0405056369549401
-0.0447937426353894
-0.0367310882647434
-0.00914013186250391
0.00781991448718696
-0.00833965913354728
-0.0522670357513319
-0.0348961106267316
-0.0311741033323075
-0.0204646885111472
-0.0243540135988425
-0.0313833928718353
0.00908894573925034
0.00399780900453156
-0.000872970242889723
-0.00277908289767799
-0.00316335250922759
-0.00249085076471636
-0.00180726114611894
-0.000738493074169294
0.000149730216220142
0.00107419259931339
0.00137329428652049
0.00150998552687703
0.00116645347283698
0.000951249205664493
0.000533007081572935
0.000164455713063485
0.000126247294153452
-1.48650988489958e-05
-4.37785072978967e-05
8.59486767175641e-05
0.000220892610730188
0.000534545318290729
0.000865248654994683
0.00100704099706308
0.000846558211792291
0.000551254171342767
0.000183524512997474
-0.000132359051079655
-0.000472445800972676
-0.000818017513136436
-0.00103937120271411
-0.00128901049499738
-0.00169268453713542
-0.00189603029408613
-0.00212284986555106
-0.00218564982598524
-0.00228628271949866
-0.00244968206941125
-0.00267599292268826
-0.00291549110233357
-0.00291459741098784
-0.00298405572313064
-0.00331728346440868
-0.00338966168304475
-0.00333099929111753
-0.00346085759540007
-0.00340946888356991
-0.00327301399610281
-0.00321502140490696
-0.00303903050038854
-0.00301120595350633
-0.00319743343953428
-0.00312242717898147
-0.0029830927805491
-0.00293561047055558
-0.00293836369186374
-0.00292399686974714
-0.0028919438265132
-0.00278116485137584
-0.00284226752095371
-0.0027990434459906
-0.00274471661153947
-0.00263454593514999
-0.00255605431355299
-0.00225790892612236
-0.00197269343769663
-0.00196369452555215
-0.0018371777746466
-0.00181645114129415
-0.00168368181846444
-0.00145028962104355
-0.00141744491158314
-0.0013804829815707
-0.00124964675303614
-0.00100571470008169
-0.000796518842779733
-0.000722131548940536
-0.000585538781319168
-0.000457319433079455
-0.00022440825208906
8.57040058819635e-05
0.000453291719958474
0.000694703391391988
0.00088790471148447
0.00114212666285608
0.00143788796185581
0.00165521725886583
0.00152224558254035
0.000904209846833299
-0.000322864963015948
-0.0015513432801876
-0.00276727253833696
-0.00378736798537226
-0.00493941831729137
-0.00657198801488896
-0.00719244658345682
-0.00796646858896582
-0.00947960610668182
-0.00985139204155604
-0.0106446923548834
-0.0111353904149721
-0.012620258681827
-0.0144361239360622
-0.016953647715841
-0.020766798025485
-0.0258175174792247
-0.0300351297721061
-0.037278182954525
-0.0399482790400462
-0.0458629854489115
-0.0391245677068278
-0.0142335543012051
0.00716217834305049
0.00467207916601831
-0.021713474025269
-0.0145165704316776
-0.0113892773693668
-0.00464587817339756
-0.00312607404291694
-0.0381999229842756
0.00639714881680628
0.00506976319517521
0.000879231236631045
-0.00154129811203017
-0.00247898983599331
-0.00194641354532514
-0.00131703604556302
-0.000372368213902957
0.000473897990304596
0.00119058062833211
0.00153703991522457
0.0013883749821896
0.00131700459032291
0.000982387790577092
0.000561443960314458
0.000269341649636067
0.00022503330212146
8.3899449544573e-05
0.000113160525036923
0.00025485843722738
0.000402323832984394
0.000681475606335702
0.000971383354387067
0.00109176033463073
0.000934862507530296
0.000651523432326705
0.000308724027079525
-2.21849320550844e-05
-0.00038653520788914
-0.000730008719973313
-0.000911206314960924
-0.001130179680108
-0.00152703264558025
-0.00173261187613749
-0.00198813876667723
-0.00208932758697751
-0.00212669696017898
-0.00224819572481541
-0.00246554777518365
-0.00273343623136858
-0.00269128279008622
-0.00275040876046738
-0.00308135528878467
-0.0031743773801335
-0.00308071100153244
-0.00328008972074678
-0.00324017531727414
-0.00306038027951751
-0.00302968171925531
-0.00287266202168012
-0.00282524927717779
-0.00295894098148151
-0.0028742032768891
-0.00279003476763758
-0.00273094669454556
-0.00271327040234985
-0.00271126024454969
-0.00268756730145835
-0.00261816239129172
-0.00267828009989989
-0.00260279239200131
-0.0025178539538838
-0.00236613388316902
-0.00233202870813608
-0.0020199417469046
-0.0017551637490495
-0.00175640593703095
-0.0016720796332392
-0.00161906127540706
-0.00146173497329515
-0.00123997935594984
-0.00123302622268384
-0.00119127146720612
-0.0010539550687033
-0.000815197893160032
-0.000642381036088548
-0.000544082570223356
-0.000376651708598396
-0.00024081936185973
-3.2111434237867e-05
0.000278323146941258
0.000601393314638026
0.000795707987077956
0.000997059729962742
0.00126205056929951
0.00150445251172799
0.00169402068996836
0.0015608031469956
0.00100086604112427
-0.000160300395762539
-0.0012481086061669
-0.00250407606167448
-0.00341833166023451
-0.00461540195042283
-0.00604759947029523
-0.00676590698817436
-0.00741301836566595
-0.00868029551923498
-0.00918021569086224
-0.00947265131377973
-0.0107298560632065
-0.0116889059658631
-0.0133420680270627
-0.0158045796936718
-0.0194405177504815
-0.0251166723496323
-0.0288112088298111
-0.0367175906202329
-0.0398107055396044
-0.0473373730661627
-0.0414906436372792
-0.0186352666233344
0.00392550897785123
0.00872737955544645
-0.00423202775211385
-0.00234301129207001
0.00138925163664526
0.00564632196896009
0.0108284498070764
-0.0362644723974955
0.00308669398162532
0.00502985479759255
0.00243375117421031
-0.000231844792518564
-0.00152811665639234
-0.00131010530000208
-0.000770081270352719
-2.34140920163015e-07
0.000767230373344937
0.00127107042144056
0.00160645593161164
0.00131295535327459
0.00142335043137795
0.000912915549623435
0.000571714284776925
0.000328168309549794
0.000291481301292878
0.000154778495525972
0.000231367994256244
0.000361853883164063
0.000538302624373595
0.000776696483960623
0.00103374189917503
0.00112885049896344
0.000964146177912248
0.000701360854173106
0.000384941752230107
5.97489753039449e-05
-0.000339727099821168
-0.000673852640984173
-0.000821995621996712
-0.00101316431131654
-0.00139530576047056
-0.00159851450498213
-0.00187540696461001
-0.0020081852003749
-0.00199443660212677
-0.00208136493696953
-0.00227602809985356
-0.00253723314446586
-0.00250324670390044
-0.00256750408865971
-0.00285048380724095
-0.00295294009109113
-0.00284252917780003
-0.00309649769997458
-0.00308049062294437
-0.00284840392086824
-0.00283589401681727
-0.00271985161995969
-0.00265202656980717
-0.00271541532203012
-0.0026316822806622
-0.00259673575050017
-0.00253065185047155
-0.00250673489383044
-0.00251630726844477
-0.00250191596012172
-0.0024656529743908
-0.00250726306865785
-0.00240890466318846
-0.002306793405418
-0.00213605982760582
-0.00211611092410601
-0.0018043235433276
-0.00156744864390278
-0.00156883057327316
-0.0015345658290014
-0.00145128479542525
-0.0012647111519812
-0.00107266248049986
-0.00107947840647646
-0.00103860151292565
-0.000885248637641758
-0.000671475229922888
-0.000531378124491673
-0.000405722769174832
-0.000195444564775438
-5.61006829358494e-05
0.000113990514897639
0.000417161179914253
0.000690615214370733
0.000859110202524852