/*--------------------------------*- C++ -*----------------------------------*\
  =========                 |
  \\      /  F ield         | OpenFOAM: The Open Source CFD Toolbox
   \\    /   O peration     | Website:  https://openfoam.org
    \\  /    A nd           | Version:  7
     \\/     M anipulation  |
\*---------------------------------------------------------------------------*/
FoamFile
{
    version     2.0;
    format      ascii;
    class       volScalarField;
    location    "2000";
    object      PkLES;
}
// * * * * * * * * * * * * * * * * * * * * * * * * * * * * * * * * * * * * * //

dimensions      [0 2 -3 0 0 0 0];

internalField   nonuniform List<scalar> 
15600
(
0.000275951617174594
0.00102440930208763
0.000204241110301673
-3.97483846948335e-05
-0.000128609506978277
-0.00010913904039101
-1.2592751131062e-05
-1.85209804723008e-05
-1.90382989741428e-06
3.93411042606611e-06
-2.77787270022028e-06
3.64089183294908e-06
7.39828943417597e-06
9.27731939349746e-06
1.08350592106047e-05
5.95266874193736e-06
1.45311908209802e-05
6.06960458323945e-05
8.53036403705487e-05
0.000194261276892465
0.000282462880357627
0.000396090815632239
0.000424143524590304
0.000456730547176077
0.000407168280187725
0.000438409196864515
0.000267669334119998
0.000416661941200481
0.000349897133060772
0.000499582392960108
0.000433606823217133
0.000417131976815261
0.000405232549144825
0.00035396291950416
0.000319470856325833
0.000246489685342667
0.00014112880838191
0.000106104740517477
4.34832454612764e-05
-1.41345452487708e-05
-1.40976822491692e-05
-7.51567307145321e-05
-0.000114024978571288
-0.000138494121856529
-0.000178426099013387
-0.000232095295194947
-0.000250060274474423
-0.000239999916764704
-0.000184565305259668
-0.000231110856316105
-0.000261914437544936
-0.000226537448810247
-0.000220024148859342
-0.000230839115510539
-0.000207289925221464
-0.000206335875057327
-0.000174547890230309
-0.000157679868580096
-0.000196913055939174
-0.000156332221596592
-0.000141278221293134
-0.000137090073014224
-7.5412682896863e-05
-4.8112770523376e-05
-5.19092327668672e-05
-2.24094245224967e-05
1.56973273040312e-05
0.000101710312371601
3.27178588371918e-05
6.51921384380245e-05
0.000189232992700926
0.000265083405973382
0.000101866906233432
0.000191080169337787
0.000340407570009996
0.000112886648889727
0.000270948856609619
0.00035391088066064
0.000265342881960951
0.000444451103718804
0.000335272350019154
0.000156591552102476
0.000391523780856302
0.000384274149975105
0.000290784204497549
0.000254687254625945
0.000263097005491733
0.000436712291913413
0.000223955002094303
0.000300900016126586
0.000215074191937505
0.000168626495785257
0.000190254938441348
8.84736648108469e-05
8.14074189987561e-05
0.000113134986765767
0.000193414655699746
0.000261818929947839
0.000373836937037352
0.000363663715579855
0.000377595631196926
0.000356517368882266
0.000205215129803271
6.4243122646902e-05
-2.65477095756118e-06
0.000154281318758649
0.000273124790237262
0.000305543254799787
0.000136826312514377
1.03944203345236e-05
0.000479803402424572
0.000404256108879782
4.50590406065668e-05
0.0010990016384963
-0.000416288441976585
-0.00207937092657173
-0.00151275343201959
-0.00036784883408799
0.000357164151073096
0.000614455369356119
0.008534380638006
0.0160363779129372
0.0112994516425015
0.00301388900800622
-0.000903648651971418
-0.00153614789826974
-0.000614757975807579
-0.000414671103511051
-0.000155313982515443
-2.165556423947e-06
-5.241643104348e-06
0.000103143976564066
0.000166690409582159
0.000282125966787689
0.000430057705678812
0.000500052699107072
0.000633302355648771
0.000775985726970946
0.000946377091672702
0.0011146514489054
0.000869721479452031
0.00114587124415859
0.00116771755625511
0.00107037602539103
0.00100141902059535
0.000911879993148622
0.00124368173839795
0.00216131872984868
0.00247522614793754
0.00255166556905867
0.00207129660622159
0.00168813895226932
0.00117891754408807
0.000629721404202125
0.000181234385418325
-0.000426587498441709
-0.000779650533154636
-0.000932406812341725
-0.00161193976681338
-0.00156978430696214
-0.00146154857718956
-0.00191497148339678
-0.00217172624146998
-0.00224131657454167
-0.00219790884175786
-0.00256742571361419
-0.00253671067137657
-0.00213064964721246
-0.00229136921514929
-0.00245760373617825
-0.00209545867772766
-0.00200155247917404
-0.00224172508171206
-0.00203953271490453
-0.00175997843455705
-0.00159449873520858
-0.00149778030758883
-0.00147010961805712
-0.00140681841322332
-0.00116885067843616
-0.00104538255456386
-0.00101753992129526
-0.000805397286737364
-0.000533529557499
-0.000434912389589385
-0.000375321886297992
-0.000316299740740261
-0.00018810112176929
0.000117969950009155
0.000274272115729079
0.00039740780111559
0.000608256772137912
0.000861234698225993
0.000841018944019016
0.000848210195134352
0.00102001245572659
0.00111799349293354
0.00122864914216876
0.00137722674013037
0.00149914724906477
0.00154190900777543
0.00150103976660048
0.00151331525919416
0.0015781090792386
0.00169432120310808
0.00177023789862567
0.00179046690992655
0.00185513724640892
0.00184748602372373
0.00181814190611841
0.00190489687263674
0.00175994831824348
0.00139000390915298
0.000689362831572436
0.000221050431938243
3.92213191113918e-05
-8.30719869494415e-05
-0.000270852359928609
-0.000299880456223475
-0.000709287509965208
-4.30125966702118e-05
-0.00010407607673316
0.000184107837731002
0.000534922283320218
0.00102040230507123
0.00197810347939825
0.00195003470643273
0.00262868693905609
0.00436902822158743
0.00447170296791925
0.00911030439648457
0.00996299850010895
0.0130727569634563
0.0185184009697709
0.00751577870743805
0.00404900232301535
0.022224025871055
0.0321074589898477
0.0191056927142188
0.012948782844785
0.0433042664147423
0.0567750630817363
0.0466617310261586
0.0162428399413886
0.00244387279786212
-0.00212937781439401
-0.00157395435270299
-0.00103376319337299
-0.000477993573920563
-0.000149479114189663
2.41409293136501e-05
0.000307659500162799
0.000588348930493385
0.000985590437343707
0.00140929658699574
0.00163001762619405
0.00200239675970755
0.00205685101876679
0.00203856570946499
0.00211261119250448
0.00145454330364246
0.00156839069058986
0.00144301689152786
0.00120096517976238
0.00109138859078669
0.00115722024603351
0.00203650164868283
0.00319533059560283
0.00324596282841405
0.00275730703584473
0.00167887344247155
0.000717275321485231
8.69915359310413e-05
-0.000748181775638261
-0.00147097019205901
-0.00225347372940626
-0.0029095828570569
-0.00303459414127255
-0.00343947749895564
-0.00352507578246483
-0.00331489889317517
-0.0036978741415236
-0.00403112885604316
-0.00404240905176396
-0.00404107499430179
-0.00419706771388758
-0.00427562833122118
-0.00381478677122372
-0.00372699942132606
-0.00390019852272383
-0.00353767669017075
-0.00329091499019733
-0.00344605466200068
-0.00315720445875785
-0.00278781380772765
-0.00250770547737775
-0.0024134410381671
-0.00234370184086953
-0.00215859820525682
-0.00193698071386801
-0.0017901769080036
-0.00170425751261452
-0.00139596801643665
-0.00104872636464415
-0.000904884799423916
-0.00082744098805392
-0.000787882933718967
-0.000610496888584919
-0.000269511127731182
-4.75980830217747e-05
0.000265817219951368
0.000606648350868938
0.000884320100625574
0.000905558481051741
0.00100107370785341
0.00117700715825332
0.00141250776112052
0.00158007795853684
0.00185019571404905
0.00208439061515852
0.00221659413078424
0.00224444448637325
0.00222431216958594
0.00231288709776824
0.00263645308231576
0.0028980642914415
0.00310488728948748
0.00335222880550293
0.00337257775240321
0.00353793883095812
0.00385737060363683
0.00376109984598213
0.00327909327934932
0.00225588287118442
0.00119136015267616
0.000343431422989454
-0.000278875682694578
-0.00096587240994405
-0.00133598307223047
-0.00216675830155482
-0.00188010426231087
-0.00242701080346636
-0.00213991781770688
-0.00131730679329778
-0.00098671599373646
0.000681758430596521
0.000810875744070863
0.00155027477704629
0.00378321777669859
0.00420906613029855
0.0048928829903456
0.0034491813069924
0.00395293646788497
0.00702649644708037
0.00209230293083318
0.0311817076628273
0.0789216614522191
0.119796970901039
0.0853288786279666
0.0591437534300632
0.0994292134428551
0.105412388853782
0.0964446119934871
0.0384622011644222
0.00980448166130833
-0.00150891597343003
-0.00256396276178619
-0.00166090868373604
-0.000809950806374285
-0.000388877326119634
9.02468235079099e-05
0.000560321615038181
0.00108632745424555
0.00176578445183568
0.00237238487458902
0.00263842311104321
0.00316024041254835
0.00291510979029969
0.00256799554543779
0.00232420066166296
0.00139406928190539
0.00138984755114978
0.00124396336648874
0.000947062347022854
0.000966240883369868
0.00124219575332358
0.00230089958850302
0.00313447575226888
0.00289257427114988
0.00203919546257339
0.000856794469540538
-0.000151019140721757
-0.000876127701115071
-0.00164487431269816
-0.00225218788065081
-0.00289736623348723
-0.00349354904894095
-0.00374479900484895
-0.00400258833372712
-0.00394438440638416
-0.0038224213393743
-0.00406421810527041
-0.00437774017622871
-0.00442317435631618
-0.00445023523630186
-0.00455264951307239
-0.00457938959711185
-0.00424097790508981
-0.00411672528707333
-0.00418889571663005
-0.00384958103249406
-0.00360992055391543
-0.00368677967243344
-0.00338759141187148
-0.00306234214793916
-0.00282608004297965
-0.00278439476395474
-0.00267482696156794
-0.00239714002603033
-0.00224908883466625
-0.00214722388429391
-0.00204521622686868
-0.00173240008812985
-0.00140541895590199
-0.00126877697181951
-0.00118885429002022
-0.00117560974902542
-0.00102206693747186
-0.000702731976953464
-0.000460858656859668
-0.000122364440672101
0.000234475436408159
0.000537134130130266
0.000569398931055464
0.000687132880810217
0.000851547906131069
0.00111560500454108
0.00134603870458115
0.00161244547316757
0.00191093465404695
0.00213633413822922
0.00216534640551357
0.00216652175487269
0.00234146309890488
0.00272815146656562
0.00307554590383492
0.00340466331852334
0.00382925759944801
0.00399108786968973
0.00429821293978136
0.0048236850726375
0.00488528591353966
0.00449068616615387
0.0034955799762184
0.00203682627362396
0.000748812546803695
-0.000297201809908876
-0.00129773809790875
-0.00201936632001124
-0.00330106858113907
-0.00361915316160431
-0.00447961871017181
-0.00471291127691813
-0.00409661503007565
-0.00450490773448324
-0.0032966450426788
-0.0033790824926012
-0.00315148743910446
-0.00225916321949744
-0.0012170033021695
-0.00271767439411981
-0.00573315452263838
-0.0102618222941008
-0.0121143406481
-0.0175698575119263
0.00978563534107861
0.0610331969703676
0.143189937953944
0.159880697902792
0.136378134201504
0.155053000731595
0.144941336251856
0.142493560905337
0.0673482546201339
0.02097177150294
0.00106082997583069
-0.00284761084531986
-0.00228801502836215
-0.00117412174597675
-0.000628152106120012
0.000150177074375696
0.000776251861364497
0.00148419415893834
0.00234085665534033
0.00300920288703219
0.00326570983985147
0.00365918309220629
0.00311624557955245
0.00259011797103714
0.00213350315045887
0.0012547612871911
0.0011059398157716
0.000909698792894947
0.000757225074589112
0.000905360314408981
0.00127528051235632
0.00224566027800097
0.00266805786036903
0.00225960373959173
0.00137823354801246
0.000314068926779353
-0.000576037944381937
-0.00119700319945447
-0.00178988587180359
-0.00228473235682883
-0.00280483568325127
-0.00330668136267327
-0.00351285226190522
-0.00371683588355717
-0.00367518620946347
-0.00356024222176557
-0.00374857071800402
-0.00400742425875529
-0.0040761419702037
-0.00413986676246491
-0.00427387405315685
-0.00431131618317114
-0.00408938584008133
-0.00397997048563005
-0.00400954199432215
-0.00372909771632676
-0.00349407981318573
-0.00351800822473029
-0.00325145102771874
-0.00298199519397358
-0.00280398432977908
-0.00281750420880347
-0.00269483561055428
-0.00239241287236024
-0.00228223847549266
-0.00222594349841386
-0.00213046334225139
-0.00183821134265389
-0.00154391724488026
-0.00143108510185047
-0.00136314629199756
-0.00136091548491035
-0.00123522690282856
-0.000951674257365448
-0.000684911366882438
-0.000358856965251868
-6.17182900445307e-05
0.000237705031670661
0.000300229769632734
0.000427573924853512
0.000599707520872206
0.000838375015358479
0.00105293916441788
0.00132482590851211
0.00163508386972869
0.0018892086526819
0.00196568088883786
0.00196646985287117
0.0021643521992086
0.00256222823417267
0.00296129070185124
0.00338822202518259
0.00387424544506267
0.00411583388799488
0.00452502632504124
0.00517462878874418
0.00536197550070827
0.00511546433298282
0.00435060914303032
0.00276035437759946
0.00126362589798556
-3.50481858285047e-05
-0.00127350557100828
-0.0021716919356344
-0.0035513184320247
-0.00431525677351364
-0.00531332041882613
-0.00607689502913448
-0.00588630417228857
-0.00647102688579187
-0.00598348797910034
-0.00636232623270998
-0.00682535233012066
-0.00739422537942604
-0.00859593208663924
-0.011022023094391
-0.0138030273514141
-0.0198177367223931
-0.0231970995040304
-0.0298491362335392
-0.0145046661917433
0.0274000520099833
0.10136251319991
0.180668113173133
0.203637456397606
0.191771926441023
0.170507986040309
0.174616117188232
0.0999498693093938
0.0359734836122577
0.00521978133574818
-0.00208552443187885
-0.00247975232571997
-0.00145087486358611
-0.000797443208081646
0.000180687657424428
0.00089219057495115
0.00173925708884022
0.00265571047560273
0.00326510013608772
0.00349643198432825
0.00364563783548336
0.00300281332293021
0.00240903867123763
0.00183297749491059
0.00107250197355782
0.000882773440925503
0.000734224778296458
0.000674575075230496
0.000864093031861332
0.00123951729358792
0.00203517758827317
0.00216120754659747
0.00171468897681971
0.000942992326536511
6.09046860899792e-05
-0.00065861902627287
-0.00117785265943293
-0.0016107854063527
-0.00199237426356081
-0.00239309640412694
-0.00282436553944817
-0.00302174554651932
-0.00315601724273678
-0.00317236972029444
-0.00306867257738134
-0.00321609569759451
-0.00342426246770973
-0.00351652313367857
-0.00359963617840116
-0.00374253327064372
-0.00382566794003793
-0.00371814034817047
-0.0036289614074648
-0.00363332856335985
-0.00344186811344677
-0.00321267184303284
-0.00318858125711827
-0.00295936197129464
-0.00274387454119646
-0.00260745440448017
-0.00268098640400219
-0.0025562628648809
-0.00224645483222973
-0.00216724615132078
-0.00212866454905664
-0.00204978522011153
-0.00181409910793769
-0.0015477378002847
-0.00144740388792922
-0.00139117945766293
-0.00137871327137464
-0.00128401948510352
-0.00104534329434134
-0.000756845428602139
-0.00045160923755863
-0.000229016795320932
4.88451124754462e-05
0.000141526127773197
0.000270123498332081
0.000447910506628566
0.000660015487361625
0.000848072700525496
0.00110733948994949
0.00142273721602477
0.00167592608691029
0.00179065946006146
0.00180325211624385
0.00200341407885861
0.00237274335945911
0.00277946977725135
0.00326862853123423
0.0037790424047796
0.00407148062160356
0.00451814066936964
0.00521746062358791
0.00548873664202868
0.00537201871949043
0.00487686965864196
0.00332973052301212
0.00177716312207561
0.000375688513811011
-0.00093488552201632
-0.00198688939870636
-0.00337247287354625
-0.00439117084944112
-0.00537130697389972
-0.00631048670769424
-0.00660305085126996
-0.00712950877930193
-0.00728818389203838
-0.00777090621142336
-0.00842641689355195
-0.0100684482984641
-0.0116566740040391
-0.0161836634244736
-0.0204042764932367
-0.0256817664461437
-0.0301311252584626
-0.0336680042652217
-0.0233453525631627
0.00862204652327963
0.0575247173415886
0.147692413057598
0.225766306671288
0.200514643806104
0.180759834182384
0.190940124963694
0.132731172905282
0.0543904033828741
0.0110175247779635
-0.000656014767670719
-0.00224743525075269
-0.00152561208519647
-0.000914626442618431
0.000169532463593995
0.000887558421474442
0.00182494133027767
0.00273421589466805
0.00327882225780955
0.00345486057032934
0.0033656833259907
0.00276634266973585
0.00214019010812826
0.00153905192322079
0.000991750760792807
0.000743973600237298
0.000625107161123875
0.000615909794357403
0.000802947014181376
0.00116855407397322
0.00176698689446639
0.00172082809558835
0.00134350300617399
0.000736863479636848
3.91874876119747e-05
-0.000515522420699878
-0.000943780430599343
-0.00126867695898413
-0.0015473424134508
-0.0018378928454995
-0.00220367035098646
-0.00241724081660333
-0.0024977233726002
-0.00257258745717368
-0.00248745485428525
-0.00258891179045826
-0.0027704053324082
-0.00288287134235863
-0.00297950716077332
-0.00309429377396492
-0.00323206676963414
-0.00324736776136889
-0.00318379602659667
-0.00316148181262237
-0.00307348076377227
-0.00285380739304837
-0.00279491659540377
-0.00259849223824033
-0.00242787177075369
-0.00231859731158336
-0.00244046839688724
-0.00233281105341089
-0.00202807920757559
-0.00196625113085694
-0.00193628917632801
-0.00187430796896402
-0.00169903553076848
-0.00147588692230299
-0.00138620608830564
-0.00133163445244567
-0.00129903719033741
-0.00122472450722989
-0.00103430489167458
-0.00074039950703163
-0.000462276640825423
-0.000301338980636615
-5.44689633608341e-05
5.20481510409137e-05
0.00018792569445486
0.000370624430522134
0.000550643118107459
0.00070816699050997
0.000948005448799172
0.00126855946873032
0.00150631139430658
0.00165175310633962
0.00167876600843757
0.00187088139286168
0.00220394961081069
0.00259769774179136
0.00310495021581748
0.00361378833826316
0.00394632067479557
0.0044105006522364
0.00510492723456735
0.00542784613541107
0.00541020239291208
0.0051502322152602
0.00375126540730695
0.00221858864767907
0.000804704906870647
-0.000504306981630592
-0.00159453877792543
-0.00286245094371335
-0.00413740109766863
-0.0050917341046108
-0.00601329998689793
-0.00661362680415688
-0.00704278103967223
-0.00748855082860563
-0.0080964432940606
-0.00897361682954314
-0.0109230961250254
-0.0129993646993616
-0.0170593422994205
-0.0218421958347509
-0.0266038006389207
-0.0311993555424629
-0.0328435354210616
-0.0239824960274004
0.000174659995968617
0.0313471787354718
0.0980547782616287
0.202538109061143
0.185604273737874
0.177109156277936
0.193728722765034
0.161472495726431
0.0746285148378761
0.0186397713418322
0.0014598199224447
-0.00165419550368551
-0.00146499061664989
-0.000918691317091968
0.000143678826987848
0.000836505154151686
0.00175863220458277
0.00265059179032891
0.00313582993751511
0.00326505167471084
0.00299114706583401
0.00249548835341421
0.00185701273400563
0.00129476444765376
0.000914393951264144
0.000635796283788937
0.000538229652997879
0.000570228495184827
0.000745964643270385
0.00107341088136741
0.00150151009442519
0.00139341861795163
0.00113291404666279
0.000691622091403352
0.000175935763154631
-0.000241347104136013
-0.000583495029861485
-0.000846471339533154
-0.00103561771644757
-0.00123611497533805
-0.00153913679097583
-0.00177543334440015
-0.00182910888556524
-0.00195085671364712
-0.00188979351275166
-0.00193107976482081
-0.00210322268737159
-0.00223827707649315
-0.00234918830371287
-0.00242109363594931
-0.00258528015064802
-0.00272941294496673
-0.00271368192256587
-0.00265618817047457
-0.00266082782269149
-0.00245830969396809
-0.00239173387269859
-0.00223065788374636
-0.00207499402579837
-0.00198463131847344
-0.00213447325692545
-0.00205479415440378
-0.0017764338267685
-0.00172939622731136
-0.00170210830776793
-0.00165606220577997
-0.00153050545319661
-0.00135207884850915
-0.00126938089951154
-0.00122112853194044
-0.00117272821135102
-0.00109991429319349
-0.000957971494710405
-0.00066722335150111
-0.000410756082595125
-0.000316080177535189
-0.000105146122082727
2.56913175020689e-06
0.000145329016715263
0.000345412216818251
0.000498624815261778
0.000611929471094227
0.000831732047554468
0.00114931460764422
0.00137551201471588
0.00154295011466435
0.00158804402124346
0.00177268241398316
0.00206709714655733
0.00244046344583096
0.00293154598383418
0.00341724474649365
0.00377797109332328
0.00425338973115383
0.00490934824511391
0.00526317013787057
0.0053204399346385
0.00523211375439521
0.00403267996679153
0.00258609064945376
0.00120349784123633
-6.39738513218504e-05
-0.00116761704833299
-0.00226674178328122
-0.00366902664482354
-0.00462869599849334
-0.00548459727465266
-0.00625233649284799
-0.00656524219648928
-0.00722995029930722
-0.00785239484231525
-0.0089712031187198
-0.0108286703406389
-0.013051614077789
-0.0167398992326644
-0.0212491082384617
-0.0252864787487884
-0.0295897722853424
-0.0304945514610369
-0.0221489302681738
-0.00342284691506739
0.0178445427850456
0.0582657678491913
0.156365933644992
0.155705709919333
0.161990640622772
0.185961351214505
0.181958096355697
0.095122133805845
0.0287829787093731
0.00430188580209862
-0.00073180175358551
-0.00126184794887411
-0.000878788947260553
7.48594519782361e-05
0.000776878418031094
0.00167667266535801
0.00244887212175809
0.00288562201988209
0.00302235020528654
0.00258190196153635
0.00223098960492113
0.00161951076599169
0.00109433812598254
0.000813500364433459
0.000540342495871089
0.000483386951062803
0.000533284222991197
0.000687735751540238
0.000972038203859147
0.00127282112548266
0.0011860545747205
0.00105289384104586
0.000758797941287029
0.000400427562497369
9.39438028817783e-05
-0.000178437427415103
-0.000409078990504113
-0.000525351958582236
-0.000653692516383002
-0.000898357095505829
-0.00114701844685422
-0.00118905951366172
-0.00134831393055256
-0.00132252527866896
-0.00129858794413568
-0.00145976403458462
-0.00162034768557
-0.00174422767997288
-0.0017845814384042
-0.00193677054079868
-0.00218207764352819
-0.00223611778365859
-0.00215818474191507
-0.00223150243573618
-0.00205018047711971
-0.00198032757783144
-0.00186056908158169
-0.00172115522231824
-0.00164615210769178
-0.00179412552169542
-0.00175213547560193
-0.00151156545225388
-0.00147080966422799
-0.00145587395998617
-0.00141958117020423
-0.00133230773198195
-0.00120423427391439
-0.00112667789239576
-0.00107634197932307
-0.00101183613502481
-0.000936358975370411
-0.000839880509815075
-0.000567179202766984
-0.000324612578475753
-0.000287583635013838
-0.000119743118019383
-1.51985217875009e-05
0.000132238367561158
0.000341009205969653
0.000475966968673111
0.000555302250540658
0.000755247292986249
0.00105670127803653
0.00127244053368116
0.00145805276606434
0.00151992516757296
0.00169525591577132
0.00196193146382681
0.00231211230726342
0.00276167363431272
0.00320879131343347
0.00358627303968046
0.00407036746293033
0.00467908096801037
0.00503921108375411
0.00516218968206937
0.00518442269809427
0.00418807537691891
0.0028835240927284
0.00156451867960962
0.00034104595258678
-0.000742461846764325
-0.00172742271929733
-0.00311710549244097
-0.00406036658423472
-0.0048510563519665
-0.00573048681429995
-0.00587675766691666
-0.00673661751898272
-0.007365901732793
-0.00845805960732734
-0.0102316330355363
-0.0125590654030118
-0.0158992435196431
-0.0199226570810388
-0.0233159956336031
-0.0268650736714117
-0.0274129090312769
-0.01993873060334
-0.00490600511269882
0.0108284280611795
0.0339596323177643
0.108625231675432
0.121049322994267
0.139734530616993
0.170897247286482
0.19229028970518
0.11497339113262
0.0417064113903469
0.00789317868233335
0.000462332964495102
-0.000880158821058098
-0.000727533536332574
7.29610494428073e-05
0.000684670563428372
0.00154186666940502
0.00222720557652159
0.00263015291075197
0.00274610810718098
0.00224384113686201
0.00199308152227857
0.00141740280808591
0.000933568549700415
0.000715063541125819
0.000465081048336317
0.0004467215718941
0.00050180350612494
0.000632977547443171
0.000886795719148243
0.00110178518458714
0.00108484337128214
0.00106506817655893
0.000900561279850483
0.000683927528264371
0.000466902284681693
0.000242027169310194
3.68037518654365e-05
-4.64820121818413e-05
-0.000110504713208923
-0.000298056041286188
-0.000549204660210365
-0.000581743514362972
-0.000780886962972435
-0.000800933867262637
-0.000712899131118296
-0.000854998475270803
-0.00103574622747338
-0.00118736788695535
-0.00121527361305994
-0.00132056245178019
-0.00162586660509045
-0.00174995867491017
-0.00167677431859293
-0.00179978954851847
-0.00164669393912045
-0.00156871516458604
-0.00150010602880836
-0.0013715397293028
-0.00131166609531571
-0.00143559811564919
-0.00143322781926558
-0.00125345925344875
-0.00120693996473153
-0.00120039016630664
-0.00117836219752521
-0.00112112902223741
-0.00104195310182863
-0.000976099511692806
-0.000921405254349881
-0.000833514172215316
-0.000752539249837136
-0.000693449673170236
-0.000450373838028862
-0.000218737318561908
-0.000227745270620324
-0.000108785736667015
-4.73193376142312e-06
0.000142138912150037
0.000342884792614932
0.000461485157569806
0.000526527545166468
0.000708289494067473
0.000973876600917001
0.00118191760997928
0.00138880419369736
0.00146447307451807
0.00162539443599475
0.00187725735809768
0.00220572182413682
0.00260460269266781
0.00299870689465871
0.0033829362017807
0.00387267628298646
0.00444165008275202
0.00479088928417669
0.00495433034199301
0.00505528949951118
0.00425838432050331
0.00310723352896909
0.0018894754917073
0.000694440982763338
-0.000311574157233189
-0.00122646812347694
-0.00252694057603019
-0.00346106652314495
-0.00415114050891461
-0.00513997988561089
-0.00521538474878407
-0.00604991089619165
-0.00671201190922183
-0.00781518951262202
-0.00943532280239745
-0.0116559749971517
-0.0146030660657015
-0.0182700760903065
-0.0210192337170299
-0.024114421903685
-0.0240900020719867
-0.0177572174829744
-0.00555601370980528
0.00686320049432026
0.0208018429157861
0.0703952125081403
0.0886677959923898
0.114527668627703
0.151389119167602
0.191387929786421
0.132331418245282
0.0573981558353127
0.0126123760395654
0.00201525781277589
-0.000342352237957453
-0.000501281306871867
7.79415128032744e-05
0.000634899356915856
0.00143182837184023
0.00202734244264039
0.00237373013595492
0.00244103358922924
0.00206279041638924
0.00175181066031309
0.00124864738626535
0.000808576805185364
0.00062520297955475
0.00039517900139748
0.000414431320586353
0.000455361263009582
0.00059231066301424
0.000822886355548934
0.000987213862417007
0.00107609269710188
0.00115593927714587
0.00110103098050451
0.000986604582769122
0.00085578233888568
0.000652851279960387
0.000475682931635631
0.00039663876398821
0.000380668921272065
0.000248594011371193
8.78903334180147e-06
-1.03667932014303e-05
-0.000241830266788932
-0.000323558736655908
-0.000190857367458268
-0.000296004704756514
-0.000477942727734118
-0.000667432533286589
-0.000713152865683716
-0.000760763629639871
-0.0010803151048401
-0.00125295785771043
-0.0012025661216799
-0.00138015235458964
-0.00125248970248901
-0.00116080869768462
-0.00114542321062262
-0.00103861732548659
-0.000978767488366181
-0.0010745392862136
-0.00110447572834017
-0.000990529431318801
-0.000952155723879603
-0.000950664074486387
-0.000941165236116592
-0.000906998262047221
-0.000866975714468594
-0.00081619165243275
-0.000773343169880248
-0.000665946453281006
-0.000572898098819582
-0.000528219613746288
-0.000333392101653504
-0.000107090745519
-0.000148278051779275
-7.84615003667071e-05
2.13814225595214e-05
0.00016195003486583
0.000348620835641195
0.000449067069707901
0.000512282678186806
0.000692662234299077
0.000909217314131564
0.00109375255194978
0.00133212199942137
0.0014471948088882
0.00157230975955902
0.00180337259141807
0.00211329605205793
0.00247728201448439
0.00280704375563957
0.0031664720994945
0.00365758136359557
0.0042044026950771
0.0045410011492932
0.0047160538410753
0.00487350412859612
0.00426654049332543
0.00327312044324177
0.00218560612572362
0.00101637010997287
9.36063048982316e-05
-0.0007482677215348
-0.00193491291680325
-0.00286294947379392
-0.00351641905807262
-0.00439250551343598
-0.00469104015000717
-0.005270652599217
-0.00600483672984525
-0.00708308010986282
-0.00856864910504012
-0.0106605789854547
-0.0130985233815014
-0.0164780038825666
-0.0185537990490666
-0.0214037194594933
-0.0209112847016132
-0.0157820968623628
-0.00589209451222049
0.00434658689634288
0.0138132333801702
0.044114794950527
0.0622524378216882
0.0896708194854807
0.129562816714735
0.180544054780869
0.147200599868871
0.0754289048557318
0.0187555642809448
0.00401557673223843
0.00044110075607963
-0.00015842564076613
0.000146262922109638
0.000620135476178267
0.00133472169619868
0.00184787231630813
0.0021671763267473
0.00218278332637428
0.00191767954550355
0.00150178427166307
0.00112559962989561
0.0007099680429039
0.0005635860412191
0.000337699602057241
0.000384451773145154
0.000404810753485734
0.000573342615537014
0.000776919231667158
0.000922231102910412
0.00112013997682768
0.00129913208818012
0.00133606778809245
0.00128912950716022
0.00125038838179818
0.00105683164544019
0.00089908460544994
0.00080610341779747
0.000840293128318863
0.000756336856443781
0.000527854965991482
0.000501489048195259
0.000281157411662616
0.000129205062135192
0.000273593490094399
0.000215842096063241
4.34795501952244e-05
-0.000153777334164002
-0.000255050859147748
-0.000256189835285532
-0.00056859042895785
-0.000771255200411065
-0.000748574328103265
-0.00094362107063744
-0.000863535724225326
-0.000753843270155974
-0.000787293035746864
-0.000714766400728668
-0.000657221963551732
-0.000711308445794254
-0.000764267197783393
-0.000709238975857445
-0.000694345389125285
-0.000697112447483714
-0.000704403794624463
-0.000684641440454209
-0.000675685988961008
-0.000639914695981496
-0.000610742673136619
-0.000504884938627876
-0.000396533974969366
-0.000350499470071562
-0.000206221268727696
1.16065823430979e-05
-4.44417084707689e-05
-1.75824120943176e-05
8.29782549421315e-05
0.000201379554175373
0.000376567719373717
0.000452084233121269
0.000515827791646184
0.000698713039342658
0.000876086073714092
0.00102571424599214
0.00127580044632932
0.00143109477790742
0.00155421966410458
0.00176669661948607
0.00204062623810582
0.00236938491123564
0.00265442065540706
0.00299897419687807
0.00345993754836044
0.00398276782177078
0.00430055971756685
0.00446607197999284
0.00465446276017476
0.00423036503126938
0.0033936899742014
0.00245598596192616
0.00132569214918642
0.000473487284208518
-0.000284998673893246
-0.00135454038060814
-0.00219366004188127
-0.00296206493083936
-0.00351794020154165