/*--------------------------------*- C++ -*----------------------------------*\
  =========                 |
  \\      /  F ield         | OpenFOAM: The Open Source CFD Toolbox
   \\    /   O peration     | Website:  https://openfoam.org
    \\  /    A nd           | Version:  7
     \\/     M anipulation  |
\*---------------------------------------------------------------------------*/
FoamFile
{
    version     2.0;
    format      ascii;
    class       volSymmTensorField;
    location    "2000";
    object      tauij_LES;
}
// * * * * * * * * * * * * * * * * * * * * * * * * * * * * * * * * * * * * * //

dimensions      [0 2 -2 0 0 0 0];

internalField   nonuniform List<symmTensor> 
15600
(
(0.00444906437595232 -4.56601555547087e-05 0 1.30079346534909e-05 0 0.00284565141352185)
(0.00455621265339391 -0.000193231190081691 0 1.92338466485562e-05 0 0.00299220085301062)
(0.00134025762368235 -0.000191032065742228 0 2.89614606950835e-05 0 0.00105774718783018)
(0.000429623056146659 -0.000136966416744638 0 4.48842600106916e-05 0 0.000395775206288403)
(0.000599040724107026 -0.000310743473248064 0 0.000163149567075155 0 0.000543994897339738)
(0.000883180859724236 -0.000578957021114284 0 0.000382269502711949 0 0.000845972896977757)
(0.000761765281604283 -0.000560761715488539 0 0.00041472457201468 0 0.000788237101415081)
(0.000440251624892739 -0.000359001749207848 0 0.0002936474390189 0 0.000483071196411057)
(0.000409486396872769 -0.000346059849752348 0 0.000293300735186462 0 0.000489787173807423)
(0.00039002698485716 -0.000330096941319042 0 0.000280121991570683 0 0.000475504369386473)
(0.000251290282872689 -0.000211163807915191 0 0.000177862408611353 0 0.000310011878494871)
(0.000218615844243191 -0.000177772552382504 0 0.000144874039744775 0 0.000265535935569953)
(0.000300787889795823 -0.000239206707892957 0 0.000191946789838588 0 0.000361307878926996)
(0.000311199362332572 -0.000243044402638797 0 0.000191731720242712 0 0.000359092571643189)
(0.000279729729283393 -0.000215824035076205 0 0.000167469180872651 0 0.00031539817356061)
(0.000230771880977436 -0.000178523794249338 0 0.000138412340603664 0 0.000256117934989738)
(0.000260119952803807 -0.000198859176368489 0 0.000152364296687398 0 0.00029146360838197)
(0.000513764079458253 -0.000379098589602909 0 0.000281920394655811 0 0.000572034293161417)
(0.000586690010996544 -0.000414094045930878 0 0.000294786202146512 0 0.000656261611656622)
(0.000955891615255919 -0.000624831620150106 0 0.000416302177101231 0 0.00109440575705818)
(0.00112517050649424 -0.000667769544928703 0 0.000406084680030661 0 0.0013122424287913)
(0.00150064987604354 -0.000782881003361007 0 0.00042220118140395 0 0.00169295149349396)
(0.00178289055693115 -0.000791137418599152 0 0.000367695635413165 0 0.0019876618427236)
(0.00215456060145726 -0.000783846312923458 0 0.000305646014111166 0 0.0023095121657215)
(0.00233077720003912 -0.000657578384765532 0 0.000206294477150534 0 0.00243077064760953)
(0.00270363276256495 -0.000527400672686954 0 0.00012778690303916 0 0.00273540306244718)
(0.00272287095177339 -0.000314861705865666 0 5.29561378374285e-05 0 0.00275482603181271)
(0.00290852197998048 -6.99110813613012e-05 0 1.89179044039322e-05 0 0.00289708758163925)
(0.00313970717135775 9.81763372179925e-06 0 1.65474531390159e-05 0 0.00286575866712824)
(0.00362190718381978 1.70811180790358e-05 0 1.9307683804015e-05 0 0.00336698107717653)
(0.00379799688678191 1.58109454260339e-05 0 1.63044044618728e-05 0 0.00360240812348445)
(0.0040371827992407 1.74750608808878e-05 0 1.8360585841666e-05 0 0.00396794553519993)
(0.0042454983755142 1.99994809633446e-05 0 1.84193302075516e-05 0 0.0043900315819067)
(0.00455535758749325 2.0870953847178e-05 0 2.17231367268465e-05 0 0.00502676171862964)
(0.00475692288364954 2.09111393710774e-05 0 2.37338244504799e-05 0 0.00544168324674184)
(0.00478792653650095 1.74627601470033e-05 0 2.30474730381876e-05 0 0.00569172573459755)
(0.00482196823921466 1.46336541152076e-05 0 1.94641872456636e-05 0 0.00570184924407464)
(0.00493095354472825 1.36106547789659e-05 0 2.74430421720108e-05 0 0.00587381491227372)
(0.0050477965484783 1.2445848815956e-05 0 2.0157735039679e-05 0 0.00608518461468585)
(0.00529794087948365 1.13331184474676e-05 0 2.14260151424325e-05 0 0.00626440011077876)
(0.00516562017444341 1.04174188382107e-05 0 2.55386212573336e-05 0 0.00623020545943555)
(0.00539502643533537 8.51287451762607e-06 0 2.386367379503e-05 0 0.00665971868115617)
(0.00514703221290339 5.21632866805849e-06 0 2.45919725019667e-05 0 0.006400193745801)
(0.00527668361498256 3.94007102477813e-06 0 2.03320848415088e-05 0 0.00653577987612691)
(0.00524777983181916 2.63655912794728e-06 0 1.87423571715184e-05 0 0.00643306685130053)
(0.00525580196663317 -1.29749335785013e-06 0 2.4329944314293e-05 0 0.00647906834432975)
(0.00550532359222636 -1.90268538011748e-06 0 1.97722199744057e-05 0 0.00673221959004311)
(0.00587806887864657 -1.8984212169324e-06 0 2.37852302292529e-05 0 0.00712473263065303)
(0.00527339058295867 -4.62124982216711e-06 0 2.59998855324681e-05 0 0.00642048694834284)
(0.00517326143393492 -5.52966085529481e-06 0 1.64387340312362e-05 0 0.00635013708978356)
(0.00534648713268512 -6.35611821360804e-06 0 1.90561817892328e-05 0 0.00654146865304456)
(0.00552954253431197 -9.38703889756202e-06 0 2.17628768097792e-05 0 0.00677601749401499)
(0.00488814649381049 -9.44159382921304e-06 0 1.52883298897382e-05 0 0.00603757961039539)
(0.00489718690520372 -1.0881955470796e-05 0 1.46839678029107e-05 0 0.00586042489739908)
(0.00495506789241387 -1.19079163915301e-05 0 1.52282024927652e-05 0 0.00580062260034093)
(0.00506859006505043 -1.40536066930359e-05 0 1.70321342241871e-05 0 0.00596083576248815)
(0.00532064100352507 -1.98554129137002e-05 0 1.96176227124668e-05 0 0.00618862798647702)
(0.00490216128962303 -1.54843757856161e-05 0 1.61285365142169e-05 0 0.00573230909718678)
(0.00511458227319469 -1.96362803742353e-05 0 1.88266501508212e-05 0 0.00598029975181488)
(0.00503341378921299 -2.26681013826233e-05 0 1.84543194594148e-05 0 0.00589509088304452)
(0.00498678187796668 -2.34373248206405e-05 0 1.77965850151121e-05 0 0.00577250763231252)
(0.00531091947301128 -3.22116719548487e-05 0 2.84420485638794e-05 0 0.00607404258374373)
(0.00491473348259654 -2.90204958569444e-05 0 2.07982242356166e-05 0 0.00565447344119467)
(0.0042983620785049 -2.16914931198046e-05 0 1.333094830135e-05 0 0.00500394649527527)
(0.00480538393606017 -3.13099968161155e-05 0 1.94928814701055e-05 0 0.0053402234933656)
(0.0054020156118149 -4.49163064395967e-05 0 3.59648105400771e-05 0 0.00584782677271987)
(0.00538539312586634 -4.89504686700933e-05 0 3.70271791421986e-05 0 0.0057898422999336)
(0.00545150856376617 -5.86920826481427e-05 0 4.78752614990784e-05 0 0.00581396940251672)
(0.00380916254432183 -2.39647592787135e-05 0 1.09137853907774e-05 0 0.00435147717534067)
(0.00429196835009733 -3.41351728973548e-05 0 1.75950830722599e-05 0 0.00479388141329673)
(0.00503455413867396 -6.04917036031083e-05 0 4.23801956159088e-05 0 0.0053777976607854)
(0.00501731321440227 -6.5552359067659e-05 0 4.40796338657439e-05 0 0.00521841058164219)
(0.00349461058617155 -2.57648051164288e-05 0 9.78727857890759e-06 0 0.00387550374977702)
(0.00432753255772315 -4.43465050947291e-05 0 2.22894105681646e-05 0 0.00450468043311635)
(0.0049294543951002 -6.8683214845987e-05 0 4.58957824167501e-05 0 0.00492685147034563)
(0.0033107255602453 -2.53044932957921e-05 0 9.26242225678049e-06 0 0.00361291106538854)
(0.00433565469001952 -5.22087293314034e-05 0 2.68836582272973e-05 0 0.00446258167209082)
(0.0044408734337243 -6.18493029245023e-05 0 3.47816606520237e-05 0 0.00448053394136689)
(0.0038080661055076 -4.39173240004983e-05 0 1.9313665593866e-05 0 0.00401834526786683)
(0.00440797710910024 -7.16441257641935e-05 0 4.65874911628396e-05 0 0.00437805781370237)
(0.00395857954582179 -5.24604758497605e-05 0 2.40662222198789e-05 0 0.00406782589629799)
(0.00292471987037154 -2.51637103942689e-05 0 8.30663954613636e-06 0 0.00316383359149471)
(0.00417016517144609 -6.46350593750266e-05 0 3.72408177065165e-05 0 0.00413471156406427)
(0.00393696063719367 -5.93585323339494e-05 0 3.2689606343829e-05 0 0.00398764060369745)
(0.00330331397213525 -4.18701076566628e-05 0 1.87129179986008e-05 0 0.00355028619799618)
(0.00305798112683075 -3.66231703575793e-05 0 1.57537132354296e-05 0 0.00336569416080797)
(0.00310720945162324 -4.10966096363241e-05 0 1.93415607164553e-05 0 0.00346692008029479)
(0.0035278126296974 -6.50677275685083e-05 0 4.03931865030044e-05 0 0.00386350667276461)
(0.0025995812713525 -3.18841092924506e-05 0 1.52197790390323e-05 0 0.00316177669009588)
(0.00296224902534432 -4.68980389501457e-05 0 2.96537432914294e-05 0 0.00368653658719989)
(0.00228630328798893 -2.7570096210554e-05 0 1.38472429726901e-05 0 0.00319591172599942)
(0.00220128938340105 -2.46906875787128e-05 0 1.5446151160975e-05 0 0.00333362205850123)
(0.00255451627701504 2.20685784633878e-05 0 2.61686779938796e-05 0 0.00451855940737221)
(0.00273868756931096 0.000270238334238263 0 5.66442683856694e-05 0 0.00539984823788988)
(0.00296510043652475 0.00054712349179657 0 0.000135407949267869 0 0.00601350678730081)
(0.00298785354914693 0.000816877015445953 0 0.000259388517081523 0 0.00633324699940378)
(0.00289350566380659 0.00103216965475287 0 0.000404765051847592 0 0.00645316492015459)
(0.00271035066002026 0.00118757294077104 0 0.000556224382820938 0 0.00639674489260475)
(0.00244627178847441 0.0012608212893947 0 0.000683081719688899 0 0.00615857112732788)
(0.00200500695164688 0.00117946560119147 0 0.000718497991550298 0 0.00538167013842402)
(0.0018906094066364 0.00122139388233311 0 0.000812392569663022 0 0.00513506370922057)
(0.0016737165874206 0.00115770913904811 0 0.000819683303575238 0 0.0045443269857668)
(0.00116220673969493 0.000847436499762206 0 0.000625732343853591 0 0.00324312357893149)
(0.000726466345175045 0.000548108953163268 0 0.000416499808195742 0 0.0020835493025503)
(0.000583620710948556 0.000447435394742735 0 0.0003442837185868 0 0.00169654310996784)
(0.000695742818057594 0.000528318554595162 0 0.000404803863988436 0 0.00208970122872566)
(0.000750506651284598 0.00057177303821978 0 0.000442548610754947 0 0.00236902330821506)
(0.000685413630609145 0.000532206949470358 0 0.000418753827239139 0 0.00227977313452878)
(0.000466388854177535 0.000375146261728664 0 0.000302607915989133 0 0.00156919657853114)
(0.000501532528717321 0.000416004728898223 0 0.000346053985287209 0 0.00174756862638535)
(0.000734215352513747 0.000610600179352529 0 0.000509416265748872 0 0.00259460464242487)
(0.000786484756472791 0.000654684223721934 0 0.000546539951710693 0 0.0025010466416725)
(0.000833596356691153 0.00066830872065003 0 0.000537189315960733 0 0.00224739627457082)
(0.00134168715463161 0.000966898074607315 0 0.00069893089097598 0 0.00312375722451519)
(0.00172789030261904 0.00110292394154666 0 0.0007060998351369 0 0.00295576156510742)
(0.00129055295305919 0.000649524452336441 0 0.000327919333492031 0 0.00143121109659194)
(0.000969870128587142 0.000300813254837284 0 9.37999511630753e-05 0 0.000616260809957441)
(0.00140673605294295 0.000191043466813008 0 2.63544432566173e-05 0 0.000683908828782344)
(0.00198264803983933 5.86866832253607e-05 0 4.05698929235218e-06 0 0.00124473651163362)
(0.00284191425852191 -3.0184695687691e-05 0 7.50263603064666e-06 0 0.00177243892026465)
(0.0219714242650851 -0.000535475962301479 0 0.000233929112953463 0 0.0122139030306971)
(0.0244517976422698 -0.00123630684141931 0 0.000278746254465171 0 0.013932787738727)
(0.0148161356716213 -0.0020397481447151 0 0.000393294126715841 0 0.00956537226605255)
(0.00722301609140341 -0.00206443112616272 0 0.000697794455997931 0 0.00670149995379235)
(0.00547073227187868 -0.00270220463293195 0 0.00152959975804728 0 0.00638131626143573)
(0.00469285305895287 -0.00300113669641353 0 0.00220944176850727 0 0.00651430659306936)
(0.00452647012352928 -0.00326485920702113 0 0.00258283223442681 0 0.00645604635538415)
(0.00385880544561859 -0.00308995068442293 0 0.0026080766212322 0 0.00543166236075348)
(0.00339467933718848 -0.00282313859964416 0 0.00244495423751485 0 0.00487717262101414)
(0.00314996256858682 -0.0026335147665973 0 0.00227243741786173 0 0.00439798128004574)
(0.00280688963905612 -0.00232701435263915 0 0.00198258899649743 0 0.0037855439675125)
(0.00268026598430162 -0.00215899727591596 0 0.00178183997317601 0 0.00346628385449661)
(0.00265100273328773 -0.00210355046474581 0 0.00170628965066299 0 0.00327464270564198)
(0.00267673628888896 -0.00208339635271011 0 0.00165579356769802 0 0.00311172589267679)
(0.00278502468106337 -0.0021260079243703 0 0.00165993483022008 0 0.00308840732535851)
(0.00292418604011291 -0.00222423540636488 0 0.00172799913830109 0 0.0030924633260796)
(0.00308110803094925 -0.00232148758413722 0 0.00178691386664175 0 0.00320346487044848)
(0.00350219102491336 -0.00256381441598947 0 0.00192712389563595 0 0.00362831970817789)
(0.00390925414969048 -0.0027195375656219 0 0.00196445411954506 0 0.00406576746381148)
(0.00438899779587277 -0.00285345626796614 0 0.00194239687061178 0 0.00465081519210519)
(0.00496252677050022 -0.00297311291531615 0 0.00188951195945055 0 0.00533293924002905)
(0.00576163611623658 -0.00299001550654045 0 0.00169215114872238 0 0.00616606639068946)
(0.00656414086885741 -0.00288497296446988 0 0.00144002810638823 0 0.00691808857562893)
(0.00748435279357603 -0.00269050018259335 0 0.00117370165050243 0 0.00765741703391961)
(0.00840437084308583 -0.00231787373270805 0 0.000883620118088698 0 0.00838724511712777)
(0.00932083054376658 -0.00179018145231193 0 0.000607861084960981 0 0.00909245693652236)
(0.00999653154420354 -0.0010701673165703 0 0.000404226629003045 0 0.00956565772408465)
(0.0107689305947732 -0.000266349390113821 0 0.000309730983660476 0 0.00997277623532694)
(0.0120625531920893 1.41476451689064e-05 0 0.000325046212978107 0 0.0108148245070516)
(0.0133515800316782 4.34976566503745e-05 0 0.000366394590993977 0 0.012472982049025)
(0.0142742338005957 4.09801843069131e-05 0 0.000398915188695319 0 0.0139665059624551)
(0.015193945473669 5.22042325634895e-05 0 0.000409098727140845 0 0.0155479459049513)
(0.0156070036562997 5.53280886875845e-05 0 0.000440372847553582 0 0.0168841191069597)
(0.0159288395595674 3.14954302060374e-05 0 0.000465092917816804 0 0.0183573584493022)
(0.0164086062549519 2.27830688294545e-05 0 0.000474024369335517 0 0.0195024822906662)
(0.0166945084185412 -2.08310861180778e-06 0 0.000487137677861862 0 0.0205830486173531)
(0.0173414566887351 -2.45190938959154e-05 0 0.000493832826085345 0 0.0213812770874855)
(0.0180187938527502 -2.13951458153776e-05 0 0.000485650580856318 0 0.0221814417684791)
(0.0184026370828639 -3.7427624205807e-05 0 0.000492014798756584 0 0.0229315787568352)
(0.0187898570667355 -4.59770699166691e-05 0 0.000505023808097241 0 0.022953432646701)
(0.019155733324518 -3.6854666086667e-05 0 0.000485270148231295 0 0.0235858999937563)
(0.0189406935436385 -6.47892362243534e-05 0 0.00050737327142671 0 0.0238050191503198)
(0.0193138380819986 -7.90353914963099e-05 0 0.000484908936371632 0 0.0241178107837314)
(0.0193911501765104 -9.52524434055692e-05 0 0.000497164625076595 0 0.0240510943719994)
(0.0199333965248519 -0.000100881973614538 0 0.000470818215594925 0 0.0242891476262208)
(0.0201312145001385 -0.00011416736055331 0 0.000473401897539492 0 0.0245001940254107)
(0.0204394283101841 -0.00014492813993265 0 0.000478699282442787 0 0.0245733484435991)
(0.0208307542110847 -0.000115830745893795 0 0.000458190660572907 0 0.0247687558417082)
(0.0207342585018284 -0.000120092241450598 0 0.000448365710584883 0 0.0245180757832312)
(0.020452547255775 -0.00014438905865924 0 0.000455163195153214 0 0.0243052990107992)
(0.0202099977643345 -0.000149154322771423 0 0.000440925920964075 0 0.0238601146192231)
(0.0202481546670564 -0.0001520386005917 0 0.00042487756725119 0 0.0238031210369018)
(0.0201440874001586 -0.000176708589177648 0 0.000416046901439447 0 0.0235038305816223)
(0.0202346264682616 -0.000191187873578997 0 0.000404072341229234 0 0.0228851638198552)
(0.0203122755647419 -0.000185697261750147 0 0.000394790262420372 0 0.022432800914063)
(0.0200555585183286 -0.000186751229269782 0 0.000389726424077448 0 0.0222138178278858)
(0.0200381066587832 -0.000211591154469277 0 0.000382216654265648 0 0.0219245565696862)
(0.019747926406328 -0.000195308835622509 0 0.000376565948973033 0 0.0215533595460629)
(0.0193888169087711 -0.000203833186275009 0 0.000369432719985932 0 0.0212473975788639)
(0.0192867695138166 -0.000223100075835521 0 0.000363940394375316 0 0.0209556582022775)
(0.0191808102019469 -0.000226438197944164 0 0.000355878077289866 0 0.0206677490014555)
(0.0188089778388122 -0.000228104043315778 0 0.000351187349683435 0 0.0203978476973269)
(0.0185462094347701 -0.000237533517282974 0 0.000337178576588165 0 0.0198981434799725)
(0.0182608032266393 -0.000244724014995848 0 0.000330361893261438 0 0.0193317295921237)
(0.0182754551776813 -0.000253973763193437 0 0.0003251389717513 0 0.0188843436219862)
(0.0180215475892044 -0.000253438992488949 0 0.000326451738426768 0 0.0185844072234684)
(0.0178671772122029 -0.000262723557357121 0 0.000322631347175736 0 0.0183052658985682)
(0.0175273678339583 -0.000265997584105578 0 0.000314480363147719 0 0.0180851221396964)
(0.0171608692118904 -0.000269408521442311 0 0.000298543821396709 0 0.017563811050388)
(0.0166382293796043 -0.000268899727652212 0 0.000297632277083977 0 0.0170463412981749)
(0.0162920305928493 -0.000277178521998131 0 0.000293095713039971 0 0.0166007282634105)
(0.0162599806798301 -0.000281482528466595 0 0.000273149496616884 0 0.0161943599567788)
(0.0161179504800908 -0.000286051522476494 0 0.000268209166480664 0 0.01580924154644)
(0.0158396839534795 -0.000278874144086037 0 0.000274333495979208 0 0.0153451741709929)
(0.0156973704355364 -0.000279692393590626 0 0.000262311523315293 0 0.0151813412904063)
(0.0154887468068687 -0.000281025491784675 0 0.000256507290367561 0 0.0148788435234007)
(0.0150034384135606 -0.000283949374998594 0 0.000263094285374953 0 0.014490834203639)
(0.0149179917230354 -0.000287630153588921 0 0.000249747947216829 0 0.0143000534246138)
(0.0145262203970024 -0.000289959769132271 0 0.000250638176160664 0 0.0140085226033351)
(0.0143975478571859 -0.000288041943954509 0 0.000238483116563733 0 0.0137802906833003)
(0.0141670639282122 -0.000294762275431759 0 0.000246602523959586 0 0.0134777896007796)
(0.0141448184548779 -0.000289205713138817 0 0.000230640949797007 0 0.0133395492334558)
(0.013731461796843 -0.000274351838672458 0 0.000226848125264015 0 0.0130929634816016)
(0.0131808524424547 -0.000269711703604855 0 0.000228962011577148 0 0.0127612821210952)
(0.0126893888430597 -0.000270303846557535 0 0.000225423237104311 0 0.0125125381236966)
(0.012278652156607 -0.000265723024910539 0 0.000220955407826992 0 0.0123249561925012)
(0.0117706835091111 -0.000257384176226564 0 0.000218710993714452 0 0.0121496261269276)
(0.0113393417663589 -0.000256280275234208 0 0.000212011591267963 0 0.0120345768673183)
(0.0108821643631196 -0.000239813458557526 0 0.00020852127070029 0 0.0120988341319573)
(0.0101664966164824 -0.000227919479711034 0 0.000215291252325661 0 0.0121165984217874)
(0.00946511929213437 -0.000221501635666738 0 0.000211014814941002 0 0.0122704603019514)
(0.00877603816948085 -0.000201116894420151 0 0.000213920912948567 0 0.0126766947885097)
(0.00841223833126153 4.49895437925045e-06 0 0.000240537865008468 0 0.0145802645066621)
(0.00870244881414859 0.000722525028307041 0 0.000333362751291649 0 0.0172401232730671)
(0.00934757022685155 0.00159636351751729 0 0.000565730041101245 0 0.019546833186297)
(0.00941019832153494 0.00242098940047335 0 0.000948409085197422 0 0.0207549378472782)
(0.00935657792252301 0.00320657396532969 0 0.00142659637159659 0 0.0217092565309502)
(0.00900862600515363 0.00384109959524092 0 0.00196036581388763 0 0.0222756280720488)
(0.00856970269634348 0.00432283728916054 0 0.00248903486655018 0 0.0225462443293097)
(0.00818286253557185 0.00478905159772373 0 0.00307509310783506 0 0.0223355652100302)
(0.00795499543876642 0.00504708747273832 0 0.00345538292881022 0 0.0221649258588692)
(0.00755332865281581 0.00512016798594974 0 0.00370559493130602 0 0.0215256960595415)
(0.00738473768900195 0.00524933619276854 0 0.00391664970656174 0 0.0212755717688229)
(0.00696664439037619 0.00508344385772012 0 0.00386176297953033 0 0.0202542735160917)
(0.0068263568624568 0.00501771119644935 0 0.00382710168595138 0 0.020186749819977)
(0.00657548684779178 0.00483299847357714 0 0.00368653750875468 0 0.0201232186406198)
(0.00638232135181176 0.00477341810204972 0 0.00368774478151559 0 0.0202910351966855)
(0.00612850670057378 0.00465979786620201 0 0.00365267204557502 0 0.0203778202525396)
(0.00615379204050761 0.00474740103134661 0 0.00377305868818393 0 0.0205002617931022)
(0.00607268463446409 0.00479079800982209 0 0.00390068445386487 0 0.0212980804636763)
(0.00665166004376155 0.00523703801836963 0 0.00426850186680988 0 0.0235087322294021)
(0.0070561010100215 0.00554112468855957 0 0.00452396929613426 0 0.0243077843366551)
(0.00784647204713817 0.0058885340342137 0 0.00461763821926783 0 0.0249600109747146)
(0.00892000645298824 0.00599265475455263 0 0.00428302282386366 0 0.0261028517762262)
(0.0100411424616702 0.00593135276678319 0 0.00375015580098305 0 0.0246309042219212)
(0.0134158481793655 0.00620371843532411 0 0.00299738649144957 0 0.0198457244601679)
(0.0178497145664699 0.00500081724674422 0 0.00146165328238241 0 0.0130639811395908)
(0.0208917776451379 0.00275384634769496 0 0.000388887249799578 0 0.00865476967104498)
(0.016243129695297 0.000487177716237785 0 5.96771302090768e-05 0 0.00648044231720518)
(0.0165826359584726 -0.000268048227210553 0 0.00012763779199199 0 0.00791345074418084)
(0.0450065988976501 -0.00174001978226876 0 0.000817213936026842 0 0.0200366527106076)
(0.0488246663976018 -0.0030036750718296 0 0.000974209409828384 0 0.0232790112079062)
(0.0359049900186594 -0.0047874237433927 0 0.00119065874098268 0 0.0178409719426394)
(0.0172795331029654 -0.00454696950904899 0 0.00170219478047273 0 0.0135700728913831)
(0.0103979295164839 -0.00487970547838353 0 0.00291055447721456 0 0.0130145128809481)
(0.00867274638317231 -0.00535094448873539 0 0.00398525403890125 0 0.0120781115426391)
(0.00719940376887722 -0.00507283496022218 0 0.00417903857969724 0 0.0107232949032396)
(0.00634925674231151 -0.00496643632144186 0 0.00430483940131996 0 0.00954878671903094)
(0.00567931832712051 -0.00461690878958716 0 0.00411202569696901 0 0.00878978199933263)
(0.00537450911392277 -0.00441540379156929 0 0.00393709102260866 0 0.00813643225520038)
(0.00523334813678889 -0.00424799860967422 0 0.00370952609559636 0 0.0074717973913197)
(0.00530456308261868 -0.00420909330030135 0 0.003560371612693 0 0.00713700050818751)
(0.00547199256405456 -0.00427499794915417 0 0.00354551430864422 0 0.00685769931270852)
(0.00572539510171749 -0.00438885005910517 0 0.00356039425155791 0 0.00660939222195363)
(0.00605334338943531 -0.00455318857176288 0 0.00362475220986781 0 0.00651600056778202)
(0.00645831176133788 -0.00483312410684411 0 0.00382486747016088 0 0.00654623789488295)
(0.00671901629723404 -0.00496231277591421 0 0.00387905276229799 0 0.00661089049194296)
(0.00729959108703159 -0.00523935373514332 0 0.00401739317042995 0 0.00717426740149358)
(0.00767287489549295 -0.00522211137858164 0 0.00386996073487608 0 0.00768150749203581)
(0.0082752830458706 -0.0052424621566336 0 0.00369358275840558 0 0.00838598765215655)
(0.00885687715577694 -0.00515273320007183 0 0.00344122691790686 0 0.00922948219335034)
(0.00973612196020356 -0.00489020518269188 0 0.00298014599551797 0 0.0101488509411071)
(0.0106833719289549 -0.00452874097674884 0 0.00252302846787016 0 0.0109864871667039)
(0.0117264142063028 -0.00404919775060999 0 0.00208973536152924 0 0.0117853296557604)
(0.0127941663148761 -0.00335876114034055 0 0.00166362584846644 0 0.0125893746114404)
(0.0137403704502227 -0.00247811095351048 0 0.00130910632164786 0 0.013215200698195)
(0.0146410034757685 -0.00146563060804681 0 0.00106256472934075 0 0.0137633462158233)
(0.0159011365877523 -0.000446962866170527 0 0.000983806986494557 0 0.0145137640420331)
(0.0176106077693844 -0.000124587130040313 0 0.00107703387030508 0 0.0161976009206078)
(0.0188939454351108 -0.000103599747992828 0 0.0012050539953203 0 0.018460282032327)
(0.0198554491253875 -0.00012332431204749 0 0.00128385134978657 0 0.0205975093413985)
(0.0205612672893108 -0.000143592532074094 0 0.00136524671884389 0 0.0225569020111941)
(0.0211289611738162 -0.000151550646877744 0 0.0014382281963427 0 0.0244086845685786)
(0.0215822433560907 -0.000211861671360442 0 0.00150269778342927 0 0.0264096342123495)
(0.0220799824806558 -0.000247304711948357 0 0.00154391153867557 0 0.0279251497777262)
(0.0224668634738792 -0.00029978175780451 0 0.00157996120182582 0 0.0294421769471814)
(0.0232347952341681 -0.000355506181195782 0 0.00161278426603743 0 0.030496446960919)
(0.0239370243219087 -0.000359218248625911 0 0.00163244175407663 0 0.0313640920858239)
(0.0245274403601042 -0.000399138924566017 0 0.00165955139516147 0 0.0323881525041643)
(0.0252955870887241 -0.000381349538163525 0 0.00164803100299449 0 0.032815080775794)
(0.0254866673256664 -0.000372648660327424 0 0.001653745568832 0 0.0332985354930459)
(0.0256106852540496 -0.000406108709020795 0 0.00166952120684154 0 0.0338956024931949)
(0.0259470979089157 -0.000447687650369947 0 0.00165669280448638 0 0.0340661260244519)
(0.0264251836523132 -0.000454215233497097 0 0.00164060134172676 0 0.0343977318918385)
(0.0269838048382607 -0.000475418068533859 0 0.00161652282336435 0 0.0344681233455716)
(0.0274924599399511 -0.000486971688872571 0 0.00161044449690848 0 0.0349189923774582)
(0.0281459575897632 -0.00052930601783257 0 0.00159812310441331 0 0.0352587972515011)
(0.0285631825459049 -0.000459757998227946 0 0.00158226495567594 0 0.0353593377901497)
(0.028512040889426 -0.000449623096000161 0 0.00155659109006452 0 0.0351277741862014)
(0.0284642175114923 -0.000478294829150599 0 0.00154078714002625 0 0.0351305056897104)
(0.0281891883233386 -0.000481290359381566 0 0.00150623862033112 0 0.0344444714567387)
(0.0282051994865035 -0.000496699021020617 0 0.00149251051361154 0 0.0340596257755222)
(0.0281925518955352 -0.000529141499635121 0 0.00146910044450157 0 0.033748184997536)
(0.028320037100463 -0.0005456665670449 0 0.00143093297330294 0 0.032920304760438)
(0.0284914059626798 -0.000528233832430097 0 0.00139787033085633 0 0.0324197510670594)
(0.0283689169054296 -0.000514203956226551 0 0.00138374558551368 0 0.0321542084694676)
(0.028438497305748 -0.000544958537799023 0 0.00135503373270606 0 0.0318110516749768)
(0.0280711949849252 -0.000506170030826669 0 0.00134013972449926 0 0.0312981680470178)
(0.0276970252637392 -0.000511014127480723 0 0.0013182674462933 0 0.030853748993368)
(0.0276843176696276 -0.000548668683270834 0 0.00130261388919679 0 0.03043934094906)
(0.0276192173386617 -0.00054609995023717 0 0.00127597774410799 0 0.0301377720501613)
(0.0272249737108289 -0.000533562545884768 0 0.00125870635468228 0 0.0297411478792457)
(0.0269285607813667 -0.000544839847003821 0 0.00121516899039549 0 0.0291707651441461)
(0.0266585736437767 -0.000560320015626785 0 0.00119618744328727 0 0.0283877496212306)
(0.0266648464270258 -0.000573592913527203 0 0.00117805270340377 0 0.0277937837401179)
(0.0264387358084404 -0.000568711328186793 0 0.00118039557323858 0 0.0273081696189835)
(0.026299105353521 -0.000576283508100452 0 0.00116525618630821 0 0.0269490326838422)
(0.0258892497884335 -0.000571938405838896 0 0.00113648866156136 0 0.0267299249291945)
(0.0255329077945679 -0.000571793751144772 0 0.00109049480293571 0 0.0261519989298709)
(0.0250961482165855 -0.000575068502608696 0 0.00105803369264132 0 0.0255454164016381)
(0.0247707514528241 -0.000589185898155539 0 0.00103408492179742 0 0.0249484696399453)
(0.0245963213173569 -0.000589052701982633 0 0.00100211812945802 0 0.0242451822832654)
(0.0244486615546722 -0.000599459347937876 0 0.000985516997775287 0 0.0237870912439702)
(0.0242777001409784 -0.000583562314482355 0 0.000969271444754663 0 0.0233441027424231)
(0.0240064442097671 -0.000587020337424871 0 0.000954850681669203 0 0.0230100380713933)
(0.0237157431591099 -0.000585306007504281 0 0.000942823399591936 0 0.0225331599958839)
(0.0232986091488516 -0.000597708102224233 0 0.000929488165473203 0 0.022131569897805)
(0.0231236503555795 -0.000601332499029207 0 0.000911055816546254 0 0.0217646893123153)
(0.0228098270405141 -0.000606999313566677 0 0.000887389920068362 0 0.0215550785655059)
(0.0225428464898208 -0.000606648471961338 0 0.000874068983030471 0 0.0210948284575924)
(0.0224185709582089 -0.000622372662037667 0 0.000868953928360316 0 0.0208044102842591)
(0.0222983037090551 -0.00061196425279257 0 0.000849912966827112 0 0.0205341496374127)
(0.0216962602617871 -0.000576445705367783 0 0.000836957560546757 0 0.0202133173868498)
(0.0211014312440424 -0.000562660181259939 0 0.000815030974256029 0 0.019919387091363)
(0.0205121837290834 -0.000571986901721943 0 0.000795868715011369 0 0.0196532413143264)
(0.0199497056078438 -0.000568054805856968 0 0.00078247827527126 0 0.0194001113173092)
(0.0192692375330491 -0.000556078124226444 0 0.000767029278929901 0 0.019205160345344)
(0.0186679642837035 -0.00055966601842181 0 0.000755997546054409 0 0.0189724777965094)
(0.0180075277849913 -0.00052254994991445 0 0.000746458932921856 0 0.0191327616094064)
(0.0170222574303406 -0.000502240114368525 0 0.000744442521664658 0 0.019297919710782)
(0.0159309965894897 -0.000497682423179493 0 0.000737866854604652 0 0.0195071447289895)
(0.0147823555484571 -0.000466344570783761 0 0.000741259456898192 0 0.0202125216175287)
(0.0136451289602536 -0.000189768278221604 0 0.000784635418931037 0 0.0222848659634431)
(0.0134505206472165 0.000742181393304978 0 0.000911693157318787 0 0.0258436199130788)
(0.013975016812071 0.00193321405146182 0 0.00121990460148429 0 0.029408896200647)
(0.0142215293409894 0.00323040556850894 0 0.00174857962820923 0 0.0323383064194599)
(0.0142341830538975 0.00444643095349747 0 0.00243713652580634 0 0.0344988129819595)