/*--------------------------------*- C++ -*----------------------------------*\
  =========                 |
  \\      /  F ield         | OpenFOAM: The Open Source CFD Toolbox
   \\    /   O peration     | Website:  https://openfoam.org
    \\  /    A nd           | Version:  7
     \\/     M anipulation  |
\*---------------------------------------------------------------------------*/
FoamFile
{
    version     2.0;
    format      ascii;
    class       volVectorField;
    location    "2000";
    object      U;
}
// * * * * * * * * * * * * * * * * * * * * * * * * * * * * * * * * * * * * * //

dimensions      [0 1 -1 0 0 0 0];

internalField   nonuniform List<vector> 
15600
(
(0.00417912432074437 -2.5265188842702e-05 0)
(0.0108116443181051 -0.000398344312718953 0)
(-0.00154962499409847 0.000260484523260114 0)
(-0.00322106944162526 0.001015141292655 0)
(-0.00502483679110607 0.00256917978426752 0)
(-0.00581099243368419 0.00376045456939694 0)
(-0.00459704518347368 0.00336429463064926 0)
(-0.0032239160023284 0.00262084966731692 0)
(-0.00284659446193501 0.00240421741338986 0)
(-0.00271154808552062 0.00229381584805274 0)
(-0.00225245165551769 0.00189689305113361 0)
(-0.00223053828171391 0.00182087557174735 0)
(-0.00292100346305086 0.00235383733357253 0)
(-0.00370465838897674 0.0029376603814292 0)
(-0.00471828262047115 0.00367884969278246 0)
(-0.0058989292710952 0.00459684200806724 0)
(-0.00808479995469298 0.00623282830547796 0)
(-0.0109015217577096 0.00819450542999753 0)
(-0.0141992937334757 0.0102293737852819 0)
(-0.0173310091202522 0.0116945438170143 0)
(-0.0201255669711648 0.0123377786980976 0)
(-0.024706345411469 0.0133963764158814 0)
(-0.0277832603069647 0.0128718505048833 0)
(-0.0301282432081372 0.0114726260474302 0)
(-0.0319094646945118 0.00949366330078271 0)
(-0.0323196024972982 0.00674246668286193 0)
(-0.0328144183068571 0.00413155466882029 0)
(-0.034733014904858 0.00130359467766536 0)
(-0.0400969373955075 0.000311875070051104 0)
(-0.0479764138980921 0.000200977130770127 0)
(-0.0539918645374114 0.000142068137579381 0)
(-0.058278455959903 0.000110498990530494 0)
(-0.0616466506683702 8.03214215525835e-05 0)
(-0.0634893555700072 4.73919419759775e-05 0)
(-0.0640582305404522 2.43808997767766e-05 0)
(-0.064548302304022 -2.53168182794712e-06 0)
(-0.0642644293846951 -1.61959339887817e-05 0)
(-0.0626452775684341 -3.5231806154851e-05 0)
(-0.0618232524277559 -6.22907926193454e-05 0)
(-0.0588933355307739 -4.09317159522992e-05 0)
(-0.057169331443112 -5.43213861831692e-05 0)
(-0.0545737771986321 -6.94493879445737e-05 0)
(-0.0520424544197362 -8.08957102558439e-05 0)
(-0.0492419917336015 -8.04196886273935e-05 0)
(-0.0466045551995967 -7.12394776845403e-05 0)
(-0.0430074518924309 -9.67467595882456e-05 0)
(-0.0398456229345322 -8.78499156462624e-05 0)
(-0.0361518913453439 -8.12470908947034e-05 0)
(-0.0336628180174024 -8.82002580626088e-05 0)
(-0.0314700531652618 -8.96654102691988e-05 0)
(-0.0275376126859589 -8.42617795708763e-05 0)
(-0.0246246911520676 -7.91886191027321e-05 0)
(-0.022264156526541 -9.06012782417566e-05 0)
(-0.0186871481462852 -7.86013839959169e-05 0)
(-0.0159208920860878 -6.86264004398078e-05 0)
(-0.0130684779713918 -7.24274862264118e-05 0)
(-0.0103897339257977 -6.36567336335978e-05 0)
(-0.00882670060413852 -6.82078837050392e-05 0)
(-0.00585041577062766 -8.46401542875679e-05 0)
(-0.00303238243637063 -6.74035329377857e-05 0)
(-0.000903328008431497 -6.15870358457156e-05 0)
(0.00183002807289688 -8.59452246939769e-05 0)
(0.00419327722907148 -7.11441155327534e-05 0)
(0.00571486026267068 -4.7896862894465e-05 0)
(0.00753616341450062 -5.50793049429768e-05 0)
(0.0098667604093925 -8.4363011613597e-05 0)
(0.0119188732175751 -8.25241347713977e-05 0)
(0.0140871485518328 -9.79126364604948e-05 0)
(0.0153157917014199 -4.13297916756437e-05 0)
(0.016794346413671 -4.59735109334889e-05 0)
(0.0184530112685507 -7.63115293571784e-05 0)
(0.0198801393971656 -5.64425173255133e-05 0)
(0.0205271516116275 -2.05805435379242e-05 0)
(0.0213821688721266 -2.95596312907953e-05 0)
(0.0222973424036795 -4.60714023381103e-05 0)
(0.0228811892418486 -2.10185619348896e-05 0)
(0.0239293845383536 -2.70389753096635e-05 0)
(0.024375767584771 -2.02676992063965e-05 0)
(0.0247663809577113 -7.61735437846882e-06 0)
(0.0246303054424037 3.29944703161258e-06 0)
(0.0247587720899567 2.39968390779195e-06 0)
(0.0241973573267862 2.73356843359755e-06 0)
(0.0247019084402606 5.34314226255598e-06 0)
(0.0245858748616604 1.39284906983731e-05 0)
(0.0239530760139604 3.38571773801834e-05 0)
(0.022763720952843 4.41632708718593e-05 0)
(0.0217910358406981 5.23244872665839e-05 0)
(0.0210273006792153 0.000105471631023868 0)
(0.0175552159500649 8.83437942024844e-05 0)
(0.0165308303947067 0.000125461593427265 0)
(0.0121579544953908 0.000125768896845469 0)
(0.0082597020494111 0.000187211321782104 0)
(0.00456862474062389 0.000293294964850107 0)
(0.00409285209162325 0.000404780662631771 0)
(0.00681779427548144 0.00125159319390183 0)
(0.0103226278380562 0.0028394327192775 0)
(0.0137645145452518 0.00501883339015308 0)
(0.0167725406561094 0.00750761764261304 0)
(0.0196344191178669 0.0103554726217583 0)
(0.0206845910627563 0.0124168312066708 0)
(0.022842409926137 0.0150919965235984 0)
(0.0244657727567441 0.0172923239568786 0)
(0.0257301653604306 0.0191038275364899 0)
(0.0267306156901325 0.0204591943208245 0)
(0.0279567351030254 0.0216256645316523 0)
(0.0307428372985455 0.0237655104512618 0)
(0.0333190371510374 0.0261431566110289 0)
(0.0376050165908557 0.0300531956434596 0)
(0.038443507718138 0.0312759763960426 0)
(0.0427300313749249 0.0358908887895494 0)
(0.0576044530426479 0.0486097005455721 0)
(0.0627958521660378 0.0529967856514326 0)
(0.0672326609000961 0.0546654768084939 0)
(0.0904275167782282 0.0662394555223299 0)
(0.100346862973988 0.0651963370576244 0)
(0.0733120055640513 0.037576077951776 0)
(0.0471410385480092 0.0149953344692429 0)
(0.0525641688620692 0.00735483221655321 0)
(0.0228466536299712 0.000874510960325802 0)
(0.00852025151407166 0.000131555532347525 0)
(0.0547769751764425 -0.000575928874041854 0)
(0.0725667518462147 -0.00282240057722688 0)
(0.0314736372906025 -0.00182543761503584 0)
(-0.0203336334906246 0.0066395450680676 0)
(-0.030403956596788 0.0147074813463255 0)
(-0.0240565161897441 0.0149561164603097 0)
(-0.0174175935101303 0.0123958990102079 0)
(-0.0138126495497451 0.0109885860618347 0)
(-0.0115960108565745 0.00967444946929829 0)
(-0.0107459230018779 0.00902481423900814 0)
(-0.010610198582534 0.00891054361169693 0)
(-0.0112265388297871 0.00923404016657034 0)
(-0.0133585341602583 0.0108766145789108 0)
(-0.0168480590547792 0.013529169076551 0)
(-0.0220581902845775 0.0174237992217616 0)
(-0.02799691953558 0.0220617407815752 0)
(-0.0355626917020668 0.0278159475258125 0)
(-0.0442457816157207 0.033688457804868 0)
(-0.0518355414616884 0.0378427489631651 0)
(-0.0601149734896128 0.0412460688638595 0)
(-0.0678094177135829 0.0430492863118879 0)
(-0.074289688382278 0.0412334043451524 0)
(-0.0797159279536405 0.0378575795085845 0)
(-0.0838042434606878 0.0327406719443343 0)
(-0.0860577976481969 0.0261028610249215 0)
(-0.0865970696604251 0.0185832539223361 0)
(-0.0864183943648004 0.0109729149079774 0)
(-0.0923705352500256 0.00442770867718361 0)
(-0.108714834275231 0.00187176165835858 0)
(-0.124858412314805 0.00127678602370571 0)
(-0.13590417069574 0.000929075056331178 0)
(-0.144801552055597 0.00067923106181268 0)
(-0.149374363724363 0.000469517405385794 0)
(-0.152290562410058 0.000224424876652933 0)
(-0.153094229173008 4.85501213737172e-05 0)
(-0.152163994040608 -0.000116112580523142 0)
(-0.149053875571449 -0.000231739691817511 0)
(-0.146574386097976 -0.000280492857414531 0)
(-0.14201876554801 -0.000499878323891917 0)
(-0.134625062475717 -0.000415333140079959 0)
(-0.131102641831059 -0.000406561428489136 0)
(-0.124200978143802 -0.000566911958840644 0)
(-0.118034746139436 -0.000582047752675827 0)
(-0.109714998596863 -0.00064457014867615 0)
(-0.103443376746384 -0.000579558082637553 0)
(-0.0958048451263978 -0.000672621005259056 0)
(-0.0868723013608801 -0.000670070445082542 0)
(-0.0802915424981444 -0.000580636252106492 0)
(-0.0735534352184048 -0.000569712846592652 0)
(-0.0654180794271618 -0.000690313025699157 0)
(-0.0572007350639748 -0.000629196309608111 0)
(-0.051384375599945 -0.000568272257230749 0)
(-0.0435953073374049 -0.000684863814583232 0)
(-0.0355115610671361 -0.000621772584155184 0)
(-0.0289769872281998 -0.00053038026081777 0)
(-0.0226132992483065 -0.000528748429958063 0)
(-0.0167257168905358 -0.000476350763783565 0)
(-0.0107143924255147 -0.000519268321475711 0)
(-0.00416131733373097 -0.000559528218184303 0)
(0.00211135206979181 -0.000479881613343671 0)
(0.00743051750623906 -0.000468151607580499 0)
(0.0133762440482487 -0.000504852478327704 0)
(0.0193187690570704 -0.000461344124450594 0)
(0.0243746112997008 -0.000378574190134264 0)
(0.0288891205445264 -0.000393301303169787 0)
(0.0338644131136235 -0.000405824187846893 0)
(0.0385629710377911 -0.000412997801072215 0)
(0.0439558185132282 -0.000421974503289771 0)
(0.0485026718046703 -0.000325922968766791 0)
(0.0520602868520284 -0.00032766021150094 0)
(0.0559770130755988 -0.000309116413244513 0)
(0.0594068612107664 -0.000221238246532112 0)
(0.0618955306413174 -0.000166653267631872 0)
(0.0635484208964545 -0.000188339126374944 0)
(0.066386966484822 -0.000178932684311436 0)
(0.0685155842722363 -0.000165532066961603 0)
(0.0701285228447596 -0.000132791874594193 0)
(0.0717927076403176 -0.000102687792013961 0)
(0.0727422037602247 -5.49658929284337e-05 0)
(0.0732579483386127 1.26331191161345e-05 0)
(0.0729001506219276 4.82919520532375e-07 0)
(0.0734023051351618 2.1961194549482e-05 0)
(0.0733973891217183 1.90918606214373e-05 0)
(0.0727497228174695 6.48631314541868e-05 0)
(0.0716050217145692 0.000169526658205294 0)
(0.0693587000668239 0.000227091832106435 0)
(0.0664973704113284 0.000274607775378877 0)
(0.0626264204978018 0.000411743750137003 0)
(0.0575324969469842 0.000482695221063647 0)
(0.0516415304952163 0.000571851052758081 0)
(0.0439365656467824 0.000750555731553126 0)
(0.0337803052434083 0.00105681215017628 0)
(0.0236858368158303 0.00146930368637619 0)
(0.0225747656469169 0.00249900670216687 0)
(0.0279021571625788 0.00529423998698608 0)
(0.0355710536494782 0.0098801485836229 0)
(0.04357513884163 0.0160086968942657 0)
(0.0522680683289433 0.0235961334718595 0)
(0.0616155996786949 0.0328292678679322 0)
(0.0708926223082992 0.0435787315721141 0)
(0.0801872380549497 0.0532466304487328 0)
(0.0892081029625588 0.0631527802634811 0)
(0.10060503619883 0.0744920615212551 0)
(0.109020113161828 0.0827635246835258 0)
(0.119183277592587 0.091163458828417 0)
(0.12852276205967 0.0986143292064487 0)
(0.139639001202315 0.108994194310931 0)
(0.149953148373055 0.119270621788976 0)
(0.159533691458694 0.128944710767337 0)
(0.168871243718868 0.140075261061394 0)
(0.190506234079761 0.158609247586657 0)
(0.20823134713824 0.173123256146158 0)
(0.2339018537531 0.18644425996681 0)
(0.264642483124953 0.190129310896561 0)
(0.333151546697459 0.209657199263031 0)
(0.425717996351602 0.205619896632048 0)
(0.417705455698458 0.125610386102919 0)
(0.282989115368891 0.0434443579847308 0)
(0.128698237754969 0.00747523215998738 0)
(0.0662679837923571 0.00125745869417976 0)
(0.14684240135461 -0.00145755506306307 0)
(0.167811759031814 -0.00622120580313867 0)
(0.104627530254941 -0.00656184885795741 0)
(-0.00664861784393688 0.00610506743765924 0)
(-0.04770027719886 0.0228452982689223 0)
(-0.0434810944067148 0.0264638210971939 0)
(-0.0321168572591122 0.022569075271758 0)
(-0.0251670701066651 0.0197647456929792 0)
(-0.0210589960836784 0.0173949041284471 0)
(-0.0194059335228027 0.0162952607385891 0)
(-0.0194075850227617 0.0162861387592544 0)
(-0.0208600109212808 0.0172524544800811 0)
(-0.0246652474689008 0.0202806886840614 0)
(-0.0307924781831188 0.025071147253711 0)
(-0.0395122324304883 0.031636727552559 0)
(-0.0492103359774022 0.0392695630821962 0)
(-0.0602378128494337 0.0476948307470248 0)
(-0.0729997493538743 0.05618404093042 0)
(-0.0829182576421036 0.0611299978322516 0)
(-0.0936587732252379 0.0648002308308143 0)
(-0.102772986234165 0.0657069300429463 0)
(-0.110511352792866 0.0617495993713105 0)
(-0.117034087832228 0.0559651936100488 0)
(-0.121906208200885 0.0478844779374065 0)
(-0.124919270796977 0.0380349411234656 0)
(-0.125771029687152 0.0269698748803078 0)
(-0.127474232927732 0.0163863905622676 0)
(-0.137478964836156 0.00772346190707681 0)
(-0.157703569790199 0.00401604488685529 0)
(-0.175067170055937 0.00275749515556531 0)
(-0.187149331480139 0.00195231790737907 0)
(-0.1946409265054 0.00134571112496899 0)
(-0.198745127177378 0.000859221638994675 0)
(-0.200974734803745 0.000351990145966818 0)
(-0.200213125612869 -4.2121149370789e-05 0)
(-0.197677556026831 -0.000405260984621793 0)
(-0.192301470477167 -0.000698743443698256 0)
(-0.186290103678408 -0.000832980939468021 0)
(-0.179661541300911 -0.00124035989909022 0)
(-0.171332187106387 -0.00108412308723318 0)
(-0.164032280758467 -0.00107763182379022 0)
(-0.15625105222957 -0.00136525819980359 0)
(-0.146697407742618 -0.00145354275592324 0)
(-0.136944151769726 -0.00155683864311404 0)
(-0.127248156983443 -0.0014486686318162 0)
(-0.117422005410135 -0.00163454336821149 0)
(-0.106580862672269 -0.00162255989682537 0)
(-0.0966440729060611 -0.00144095866230197 0)
(-0.0874384456698429 -0.00143602797844984 0)
(-0.0772935376178953 -0.00164662918013844 0)
(-0.0666289668807741 -0.00153411053050104 0)
(-0.0578470544575428 -0.00140101685973454 0)
(-0.0479829592247167 -0.00163642065839462 0)
(-0.0377076315108094 -0.00151290755253469 0)
(-0.0290743591161381 -0.00130373945234736 0)
(-0.0205594873616086 -0.00128705981987791 0)
(-0.012893446004151 -0.00120444026900959 0)
(-0.00436683015713706 -0.00128128321190326 0)
(0.0036739893769816 -0.0013285150370939 0)
(0.011761628184346 -0.00119365130318996 0)
(0.0192129394527949 -0.00117383252636573 0)
(0.0270795747919111 -0.00122405999742141 0)
(0.034693242371663 -0.00112407391139401 0)
(0.0414241154268808 -0.000964726857962628 0)
(0.0477032860869979 -0.000983567452446928 0)
(0.0542841340565164 -0.00100045836814757 0)
(0.0606646180189058 -0.00102779589911976 0)
(0.067730015385175 -0.00103280622350495 0)
(0.0736715305313361 -0.000830332753745288 0)
(0.0791624853444529 -0.000822820444355144 0)
(0.0845550975346412 -0.000743818979931676 0)
(0.088859623898186 -0.000559688057913735 0)
(0.0923837736406968 -0.000447021698931587 0)
(0.0954832760481557 -0.000490273206213842 0)
(0.0991008659767326 -0.000467868501218639 0)
(0.102020727273523 -0.000434539802224242 0)
(0.104800720635781 -0.000347322760291174 0)
(0.106914884899641 -0.000283759425863409 0)
(0.108868135184956 -0.000160053339294049 0)
(0.109593721434887 -1.46813937859553e-05 0)
(0.11006811297248 -3.15628692168807e-05 0)
(0.110620447711542 1.21337489480019e-05 0)
(0.110650749618628 1.59965935633922e-05 0)
(0.110509050918302 0.000129075057016035 0)
(0.109588727557749 0.000365480674601576 0)
(0.107143741279181 0.000507362308949842 0)
(0.103816743003671 0.000647845378860437 0)
(0.0988816069120507 0.000949968952945342 0)
(0.092874807368054 0.00112315858511694 0)
(0.0856845415348406 0.00135988798022776 0)
(0.0759974590321578 0.00179928662211203 0)
(0.0632721801514362 0.00245705075460028 0)
(0.0503663049543487 0.00334587151184814 0)
(0.0470413196596565 0.00532031820373069 0)
(0.0517124989088774 0.00962649801202946 0)
(0.0598894602607808 0.0163229188123987 0)
(0.0692462592574945 0.0249342723687203 0)
(0.0801209426696662 0.0354701296371687 0)
(0.0920098400664204 0.048177305321543 0)
(0.104097227541952 0.0629232391220833 0)
(0.117925918911428 0.0771001009743308 0)
(0.131857961731656 0.0920828046541307 0)
(0.149192795452249 0.109172981230283 0)
(0.163016440833494 0.122295949389523 0)
(0.180097664747011 0.136363653423655 0)
(0.195513000158363 0.148780634043866 0)
(0.210880878645833 0.163269543168963 0)
(0.226473743554684 0.178665725149912 0)
(0.244233099782268 0.196019233074226 0)
(0.257564770365173 0.211402031844806 0)
(0.285872195230839 0.236808211399064 0)
(0.324947788465827 0.266586259013543 0)
(0.383237187698102 0.301284828433496 0)
(0.450228543798656 0.320042977981133 0)
(0.566786881649172 0.348222981713062 0)
(0.691748057447335 0.323791587232035 0)
(0.699251631450382 0.209097472156497 0)
(0.537567160010106 0.0882223198191749 0)
(0.294361881557765 0.0209813624439924 0)
(0.171621171808365 0.0039405757478449 0)
(0.258999449763773 -0.00205420594587377 0)
(0.273337354668259 -0.00943225149407999 0)
(0.19587970283091 -0.0118230393628925 0)
(0.0356150469407162 0.00120762431999356 0)
(-0.0520452811754126 0.0260780685388331 0)
(-0.0587601869199388 0.0352413514739322 0)
(-0.0452405087336091 0.0312582014648656 0)
(-0.035956792555063 0.0278457458896017 0)
(-0.0307688258834472 0.0251682739919498 0)
(-0.028509979742305 0.0239088638816675 0)
(-0.0287377523622302 0.0241118296502133 0)
(-0.0311383780674356 0.0258702869257489 0)
(-0.0364006499885271 0.0301911537960883 0)
(-0.0446240549915038 0.0367851597283675 0)
(-0.055783262890207 0.0452825962962926 0)
(-0.0678797489525824 0.0548602443430526 0)
(-0.0804774952987315 0.0644160248943676 0)
(-0.0952631082518318 0.0741253101925504 0)
(-0.106225213176204 0.0790530503520192 0)
(-0.11775881139901 0.0821106127975638 0)
(-0.126584857859471 0.0814407818528789 0)
(-0.134299672622665 0.0754466879430177 0)
(-0.14157662392212 0.068091339610401 0)
(-0.146983017509833 0.0579892559724171 0)
(-0.150698876500077 0.0460094961795329 0)
(-0.153265383544587 0.0330040149909603 0)
(-0.157510810443654 0.0207262790159908 0)
(-0.16984948187019 0.0108284010170581 0)
(-0.190164526885618 0.00621198181771646 0)
(-0.206395320847531 0.00425061032992789 0)
(-0.216924559195997 0.00291066132346011 0)
(-0.223107152531526 0.0019010378949855 0)
(-0.225802640180815 0.00111484327088323 0)
(-0.226071054539976 0.000326252672738164 0)
(-0.223788716603976 -0.000303694330157329 0)
(-0.21978641979128 -0.00089692909240485 0)
(-0.213149572304875 -0.00138472193056577 0)
(-0.205578583663535 -0.0015986330214044 0)
(-0.196847139565271 -0.00218634033282723 0)
(-0.187401866036159 -0.00197182238534089 0)
(-0.178721508495982 -0.00195563453719625 0)
(-0.169382257203106 -0.00237188416287228 0)
(-0.15872982778922 -0.00255073582139675 0)
(-0.147529379098447 -0.00270719967907672 0)
(-0.136281159680111 -0.0025492611102559 0)
(-0.124940137873946 -0.00284076351812326 0)
(-0.112777807210531 -0.00281287200071089 0)
(-0.101345596326578 -0.00254142673802001 0)
(-0.0905892633514195 -0.00255306091616402 0)
(-0.0790800345904742 -0.00283894523954903 0)
(-0.0672972772015105 -0.00265993178470206 0)
(-0.0570119001074889 -0.00245061724717673 0)
(-0.0460208020729007 -0.00278355306237511 0)
(-0.0347701942210033 -0.00259207859246228 0)
(-0.0250712949989212 -0.00227113040047082 0)
(-0.0153564964374001 -0.00223825181952956 0)
(-0.00648652252827915 -0.00214035528798422 0)
(0.00347829629460756 -0.00223247382481674 0)
(0.0123104118304661 -0.00224744733011986 0)
(0.0213018709141975 -0.00208347964106777 0)
(0.029955158574264 -0.00206481976886368 0)
(0.0388191145512828 -0.00211072169735764 0)
(0.0473258394533748 -0.00194547136784375 0)
(0.0549934474458407 -0.00171378247070396 0)
(0.0623311906020459 -0.00173263165258801 0)
(0.0698170480435497 -0.00174665566818814 0)
(0.0771236169699955 -0.00179385973540699 0)
(0.0849809731911393 -0.00178860605870826 0)
(0.0918280300496139 -0.00148235513859951 0)
(0.0982997492733971 -0.00146016930544513 0)
(0.104418973787089 -0.00131192206389389 0)
(0.109496427239994 -0.00101582793130067 0)
(0.113789332454827 -0.000831155839249128 0)
(0.117624398733574 -0.000892199186265683 0)
(0.121826977315094 -0.000857735804848077 0)
(0.125362061620446 -0.000788133222509249 0)
(0.128880672332172 -0.000641265599576281 0)
(0.131520119117961 -0.000532381960929229 0)
(0.133915466041951 -0.000333013780438606 0)
(0.135329728786039 -0.000103042936682927 0)
(0.136303832800061 -0.000108046496879031 0)
(0.137015716057315 -3.02003422748885e-05 0)
(0.137596031272855 -5.13754650502058e-06 0)
(0.137618504567375 0.000178615595687451 0)
(0.136748471587258 0.000557613734905182 0)
(0.134452144154328 0.000804040481638004 0)
(0.131230011723451 0.00107266375665635 0)
(0.126401339468947 0.00155136994727334 0)
(0.12014105377821 0.00185594654186538 0)
(0.112441385382881 0.00227407840420183 0)
(0.10224494804954 0.00304045993883617 0)
(0.0888428813992428 0.00406606457551615 0)
(0.0748618572548244 0.00538921769388414 0)
(0.069447638788964 0.0080752327864764 0)
(0.0723624655367614 0.0133648005323587 0)
(0.0794877593350059 0.0212440567166261 0)
(0.0887494246435771 0.0312576656190657 0)
(0.100112596448221 0.0433503795990811 0)
(0.11246457755832 0.0576978152296394 0)
(0.126053447854496 0.074776343091372 0)
(0.142563042772689 0.0916272260004558 0)
(0.158815603828293 0.10916806479051 0)
(0.178725226508919 0.129038467790247 0)
(0.195662229683468 0.144803734974118 0)
(0.216648839035552 0.16220380126966 0)
(0.235681634630567 0.177777069865131 0)
(0.254378925452992 0.19517081664465 0)
(0.274327614993906 0.214427602205902 0)
(0.297316950732886 0.236562066224993 0)
(0.319512579530356 0.259613522267092 0)
(0.350078713166681 0.287676102490446 0)
(0.399306769413749 0.323192726394937 0)
(0.467295087747135 0.361700468174852 0)
(0.561910231444746 0.393832695868913 0)
(0.695118901808627 0.41892696690638 0)
(0.83206930247288 0.381788298324453 0)
(0.868162158952111 0.258734566371723 0)
(0.743310559011182 0.127984921535926 0)
(0.481425003565922 0.0393809067942845 0)
(0.307313765677427 0.00866771233130755 0)
(0.376059977731452 -0.00172717661424144 0)
(0.376498059700968 -0.0118029515167031 0)
(0.289860654050165 -0.0163906108834433 0)
(0.0996195529977701 -0.00582363893298786 0)
(-0.0431215794366851 0.0251790243741717 0)
(-0.0687942561683213 0.0410771425536719 0)
(-0.0579775419933975 0.0394074439842473 0)
(-0.0469634836414515 0.035919732110899 0)
(-0.0408112516326166 0.0330909691786625 0)
(-0.0379991542849045 0.0317946435053637 0)
(-0.0384479349145913 0.0322607397854526 0)
(-0.0417272984234148 0.0348027928591422 0)
(-0.0480775383165471 0.0401781908748168 0)
(-0.0576425473181436 0.04804272594396 0)
(-0.0702000672719013 0.0577098989641387 0)
(-0.0834753439695294 0.0682832965373045 0)
(-0.0968478759603358 0.0782647411964549 0)
(-0.111363327938946 0.0874789418646618 0)
(-0.12251877564643 0.091970050725082 0)
(-0.13401328451646 0.0941289789116787 0)
(-0.142508108351663 0.0922330229003216 0)
(-0.150737184906517 0.0851907816916379 0)
(-0.157721318969802 0.0762531930727441 0)
(-0.163619376634837 0.0648168424710115 0)
(-0.168412278626398 0.0516268238470569 0)
(-0.172861172231867 0.0375331696737953 0)
(-0.179253961241025 0.0242684587530906 0)
(-0.192854653541446 0.0136795550745895 0)
(-0.211577817212777 0.0082423302937738 0)
(-0.225801880954409 0.00558944671107919 0)
(-0.234530653009578 0.00370311276215393 0)
(-0.239037172738981 0.00227970228625686 0)
(-0.240162968549169 0.00118035069231433 0)
(-0.239039872426104 0.000135917561190881 0)
(-0.235593442502132 -0.000729591331303242 0)
(-0.230379253753815 -0.00157443822438667 0)
(-0.222671050848774 -0.00225719062109063 0)
(-0.21386261949299 -0.00256596346953219 0)
(-0.204222568569803 -0.00328747322563 0)
(-0.193817727833339 -0.00301593833922177 0)
(-0.184217995206291 -0.00300054988857804 0)
(-0.17395384819811 -0.00353898140644895 0)
(-0.162547416257219 -0.00380735974818258 0)
(-0.150543184335515 -0.00402029526562644 0)
(-0.138552250229802 -0.0038153332583082 0)
(-0.126333557318053 -0.00421272392228811 0)
(-0.113390474394549 -0.00416579510767634 0)
(-0.10107967392133 -0.00381476460995295 0)
(-0.0893922333881791 -0.0038356797828771 0)
(-0.0771102893438445 -0.00418368011352279 0)
(-0.0646766220006838 -0.00393137155778234 0)
(-0.053435189985916 -0.00365840823659572 0)
(-0.041797620941276 -0.0040576074072474 0)
(-0.030070658291719 -0.00379114359143365 0)
(-0.0196863682470738 -0.00337504317071116 0)
(-0.009265887290183 -0.0033296980874626 0)
(0.000394270257738789 -0.00322660986923467 0)
(0.0111722027549189 -0.00331436913957369 0)
(0.0205020471528012 -0.0032742799549128 0)
(0.0300763289926796 -0.00309372678556256 0)
(0.0393713958266905 -0.00308093774720418 0)
(0.0488669801454285 -0.0031075664383011 0)
(0.0578334012690882 -0.002871500883553 0)
(0.0660934146932244 -0.00257574082210302 0)
(0.0740145943480133 -0.00259398794438619 0)
(0.0820995163293905 -0.00260309136027508 0)
(0.0899736769615536 -0.00266212364346334 0)
(0.0982925160034578 -0.00264263386860757 0)
(0.105735985726408 -0.00224639820535966 0)
(0.11282474718886 -0.00219500443104924 0)
(0.119299338470191 -0.00196802360520078 0)
(0.124896029382467 -0.00156278312222109 0)
(0.129807088196973 -0.0013031563989964 0)
(0.134143435924602 -0.00136737739816198 0)
(0.138730456850816 -0.00131600099405503 0)
(0.142656042060031 -0.00120166886435299 0)
(0.146485039542588 -0.00100668614118129 0)
(0.149571795780333 -0.000841968361025385 0)
(0.152366093638682 -0.000572589881701507 0)
(0.154262229797762 -0.000258962526017449 0)
(0.155692926419473 -0.000231259800541425 0)
(0.156681473303044 -0.000108167819236624 0)
(0.157469286227888 -5.58839098323494e-05 0)
(0.15773193999981 0.000198927006537759 0)
(0.157052165584792 0.000718536343145223 0)
(0.155121332030847 0.001085012196569 0)
(0.152106166658214 0.00149949245685139 0)
(0.147430456460125 0.00215496070826757 0)
(0.141329775878212 0.00262045828678282 0)
(0.133698782640307 0.00322920325224391 0)
(0.123602254019329 0.00434566563440117 0)
(0.110345736187203 0.00573070737361709 0)
(0.096284878287592 0.00747922840554437 0)
(0.0892318999766101 0.0106881961430559 0)
(0.0902577813452431 0.0166367645747229 0)
(0.0960068234193446 0.0252063251766186 0)
(0.104598891767484 0.036055400031765 0)
(0.115756641060826 0.0490373934059947 0)
(0.128378180467835 0.0646123893643686 0)
(0.142052569714925 0.0826403338209151 0)
(0.159490072186037 0.100640807476233 0)
(0.17664870682054 0.11934302736343 0)
(0.197565834629981 0.140404139392934 0)
(0.217375249091558 0.158460654666619 0)
(0.239802200612679 0.177318392795132 0)
(0.261189971729316 0.195057538193537 0)
(0.282197063074909 0.214390278972562 0)
(0.305089813809814 0.236127661379269 0)
(0.33108934146339 0.26094322791162 0)
(0.359887494258359 0.289326348134713 0)
(0.401113880863798 0.32648772513522 0)
(0.455367102070454 0.36388836979584 0)
(0.531879173076833 0.405413539774986 0)
(0.633484530091744 0.437335661936827 0)
(0.755193141550192 0.446407637528439 0)
(0.898421705626665 0.404720730353983 0)
(0.95538868618804 0.283096616232917 0)
(0.879313952081564 0.156347800354307 0)
(0.652175545364803 0.0590844686619958 0)
(0.452279702527538 0.0155714876066441 0)
(0.489761196718656 -0.000120967783326177 0)
(0.473341472163373 -0.0130225363147865 0)
(0.379496328008481 -0.0198799120415271 0)
(0.176730784513028 -0.0130503861559166 0)
(-0.0206703458082749 0.0209076828392802 0)
(-0.0728628822305338 0.0440082805218184 0)
(-0.0686401367700338 0.0460142436606082 0)
(-0.0577314845517329 0.0436112834476881 0)
(-0.0508039721622553 0.0408622256053453 0)
(-0.0475460414191128 0.0396791844028927 0)
(-0.0482965342588488 0.0405262412553398 0)
(-0.052177792203214 0.0436777532976146 0)
(-0.059232852979823 0.0498403386981813 0)
(-0.0696598089103142 0.0586134998590039 0)
(-0.0826205113448966 0.0687213729247316 0)
(-0.0962099300770495 0.0795722960524382 0)
(-0.109569910161168 0.0894081775490369 0)
(-0.123091955064345 0.0975357523379484 0)
(-0.134193345107553 0.101568084443963 0)
(-0.145175034857856 0.102710991743408 0)
(-0.153375171748379 0.0998564976174124 0)
(-0.161605540632077 0.0918533958242462 0)
(-0.168852006260473 0.0821072779369287 0)
(-0.175354058227223 0.0698328568909601 0)
(-0.181282458756382 0.0559654221484195 0)
(-0.187162385430844 0.0411106387545401 0)
(-0.195177267710893 0.0272964353064428 0)
(-0.20910044731631 0.0162579902000941 0)
(-0.225819816756651 0.0100750492754504 0)
(-0.237884593776478 0.00674867951793767 0)
(-0.244905733635275 0.0043354799686463 0)
(-0.247910736722828 0.00249240308472994 0)
(-0.247760498656914 0.00109364984669062 0)
(-0.245486395646021 -0.000191014646932067 0)
(-0.241094754398725 -0.00129523733039461 0)
(-0.234935010457451 -0.00238709236132598 0)
(-0.226540124105016 -0.00326898112350382 0)
(-0.216893080698826 -0.00367597534044819 0)
(-0.206626304181839 -0.00450990450480319 0)
(-0.195578917303011 -0.00419122326281012 0)
(-0.185258710340185 -0.00417348129090871 0)
(-0.17439140684766 -0.00482926097795842 0)
(-0.162455788449566 -0.00518095894837954 0)
(-0.150030062435801 -0.0054466411926395 0)
(-0.137556879149952 -0.00520883999967219 0)
(-0.124820456633449 -0.00570231610374692 0)
(-0.111474615942199 -0.00564399271632121 0)
(-0.0985946727189763 -0.00522323011695701 0)
(-0.0862914899761377 -0.00523997000716161 0)
(-0.0735946036154619 -0.00563873021900399 0)
(-0.0607787930405491 -0.00532525358910234 0)
(-0.0488033363291796 -0.00499573023128112 0)
(-0.0367613714060486 -0.00542565883310047 0)
(-0.0247882247268359 -0.00509267046877015 0)
(-0.0139260809260115 -0.00458560408932553 0)
(-0.00307973104427184 -0.00452885842549856 0)
(0.00711854451939769 -0.00443179029964073 0)
(0.0184344664534924 -0.00449783238164481 0)
(0.0281249734969946 -0.00438843800197435 0)
(0.0380564736081054 -0.00419840054709418 0)
(0.0477738810335843 -0.00418791096623243 0)
(0.0575931940120134 -0.00419075472075163 0)
(0.0668599126706357 -0.00388311060809528 0)
(0.0755735175132348 -0.00352586324775337 0)
(0.0838609103232685 -0.00354354948206697 0)
(0.0923974978793272 -0.00354624336138423 0)
(0.100633332433813 -0.00360969854817836 0)
(0.109210322840654 -0.00357619612135611 0)
(0.117065440871584 -0.0031039317598299 0)
(0.124581927619972 -0.00300024707813305 0)
(0.131217303288507 -0.0026797810165711 0)
(0.137165291475687 -0.00218877638149328 0)
(0.142571121799424 -0.00185097764105439 0)
(0.147271111861263 -0.00190399108944019 0)
(0.152116679175693 -0.00182362719405385 0)
(0.156328101442504 -0.00166360705844096 0)
(0.160362555710085 -0.00142307179385597 0)
(0.163785492114106 -0.00120429182232082 0)
(0.166898845692037 -0.000866628967109364 0)