1.00000000000453e-06 	1.00195556483898 	0 	0.106721122574693 	-0.000331903675949991 	-1.44956735533344e-22
1.00000000000453e-06 	1.00593833258374 	0 	0.323829820489969 	-0.000298181953182236 	-2.28063248459533e-22
1.00000000000453e-06 	1.01006700077429 	0 	0.516576996543492 	0.00115146956968184 	-1.08817964409066e-22
1.00000000000453e-06 	1.0143469141712 	0 	0.648756624089665 	0.00357989602998352 	3.17787204629631e-23
1.00000000000453e-06 	1.01878361332929 	0 	0.72815512441752 	0.00635278749513428 	2.95715985620963e-23
1.00000000000453e-06 	1.02338284177015 	-3.46944695195361e-18 	0.776000570625447 	0.00916621596809825 	-5.57611484150622e-23
1.00000000000453e-06 	1.02815055341735 	-6.93889390390723e-18 	0.806177909870872 	0.0118537470759145 	5.13202424777598e-25
1.00000000000453e-06 	1.03309292030413 	-6.93889390390723e-18 	0.826310199749579 	0.0143798183100869 	5.67806118252984e-23
1.00000000000453e-06 	1.03821634056339 	-6.93889390390723e-18 	0.840517354170801 	0.0167581186653047 	6.44536303927467e-24
1.00000000000453e-06 	1.04352744671036 	-1.04083408558608e-17 	0.851072308911544 	0.0190100534807383 	-6.25411348097012e-23
1.00000000000453e-06 	1.04903311422874 	-1.04083408558608e-17 	0.859279252388336 	0.021156644913057 	-5.92435056099653e-23
1.00000000000453e-06 	1.05474047047132 	-6.93889390390723e-18 	0.865920064265976 	0.02321639579387 	-1.86476261799723e-23
1.00000000000453e-06 	1.06065690388671 	-3.46944695195361e-18 	0.871483211722237 	0.0252047032758513 	2.36524695481256e-23
1.00000000000453e-06 	1.06679007358401 	-3.46944695195361e-18 	0.876285098195396 	0.0271340188261926 	4.73069062578094e-23
1.00000000000453e-06 	1.07314791924792 	-6.93889390390723e-18 	0.880537100420868 	0.0290142453797618 	3.4073557193709e-23
1.00000000000453e-06 	1.07973867141705 	-3.46944695195361e-18 	0.884384157380398 	0.0308531400741013 	5.13741808698976e-16
1.00000000000453e-06 	1.08657086213875 	0 	0.88792784841292 	0.0326566588429239 	5.52053398031283e-16
1.00000000000453e-06 	1.09365333601424 	0 	0.891240678589871 	0.0344292356602783 	-4.37095862108564e-16
1.00000000000453e-06 	1.10099526164836 	3.46944695195361e-18 	0.894375197287321 	0.0361740041309094 	-4.75407459363957e-16
1.00000000000453e-06 	1.10860614351884 	6.93889390390723e-18 	0.897369980416904 	0.0378929724317548 	-1.27293379977008e-23
1.00000000000453e-06 	1.11649583428022 	3.46944695195361e-18 	0.900253652704108 	0.0395871621856968 	-4.32911582362896e-23
1.00000000000453e-06 	1.12467454751866 	6.93889390390723e-18 	0.903047653122774 	0.0412567200809349 	-2.92591156505356e-23
1.00000000000453e-06 	1.13315287097387 	1.73472347597681e-17 	0.905768175492992 	0.042901009535745 	1.26382468044449e-23
1.00000000000453e-06 	1.1419417802455 	2.08166817117217e-17 	0.908427555676445 	0.044518688355888 	2.18806356466377e-24
1.00000000000453e-06 	1.15105265300152 	1.38777878078145e-17 	0.911035280755158 	0.046107776315653 	-3.39987359408146e-23
1.00000000000453e-06 	1.1604972837072 	1.04083408558608e-17 	0.913598738182634 	0.0476657162918047 	-3.47158662007648e-23
1.00000000000453e-06 	1.17028789889366 	1.38777878078145e-17 	0.916123784630403 	0.049189433698303 	-1.18094141634868e-23
1.00000000000453e-06 	1.1804371729856 	1.73472347597681e-17 	0.918615186210463 	0.0506753978291436 	0
1.00000000000453e-06 	1.19095824470904 	2.42861286636753e-17 	0.921076962824639 	0.0521196863619863 	-1.96817934032533e-23
1.00000000000453e-06 	1.20186473410003 	2.42861286636753e-17 	0.92351265780245 	0.0535180527493959 	-3.93635659872868e-23
1.00000000000453e-06 	1.21317076013637 	2.08166817117217e-17 	0.925925547339253 	0.054865995260841 	-1.96817725663243e-23
1.00000000000453e-06 	1.22489095901542 	2.08166817117217e-17 	0.928318800658666 	0.056158825902546 	0
1.00000000000453e-06 	1.23704050310128 	2.08166817117217e-17 	0.930695599962637 	0.0573917372168362 	-1.1301608720123e-24
1.00000000000453e-06 	1.24963512056619 	2.42861286636753e-17 	0.933059228317189 	0.0585598648815432 	-2.26439235604584e-24
1.00000000000453e-06 	1.26269111575139 	2.77555756156289e-17 	0.935413133215659 	0.0596583442873834 	-1.13017893075971e-24
1.00000000000453e-06 	1.27622539027388 	2.77555756156289e-17 	0.937760972368356 	0.0606823606190412 	0
1.00000000000453e-06 	1.29025546490643 	2.77555756156289e-17 	0.940106645666915 	0.0616271938008393 	0
1.00000000000453e-06 	1.30479950225895 	2.77555756156289e-17 	0.942454316700451 	0.0624882600867808 	-3.75244701295595e-23
1.00000000000453e-06 	1.31987633029101 	3.12250225675825e-17 	0.94480842929895 	0.0632611524647239 	-3.59514917261331e-23
1.00000000000453e-06 	1.33550546668544 	3.81639164714898e-17 	0.947173723767798 	0.0639416830384698 	7.99239797738475e-23
1.00000000000453e-06 	1.35170714411495 	3.81639164714898e-17 	0.949555253097085 	0.0645259291038087 	1.55909472865943e-22
1.00000000000453e-06 	1.3685023364343 	3.81639164714898e-17 	0.951958395998957 	0.0650102817691484 	1.55613655186822e-22
1.00000000000453e-06 	1.38591278583198 	4.16333634234434e-17 	0.954388862566399 	0.0653914946511644 	1.17804817857258e-22
1.00000000000453e-06 	1.40396103097652 	4.16333634234434e-17 	0.956852688646572 	0.0656667301619415 	3.97414570469365e-23
1.00000000000453e-06 	1.42267043619387 	3.81639164714898e-17 	0.959356216159847 	0.0658336007540481 	-1.62472887742519e-22
1.00000000000453e-06 	1.44206522171365 	3.12250225675825e-17 	0.961906058764279 	0.0658902023782499 	-3.2498383433826e-22
1.00000000000453e-06 	1.46217049502345 	3.12250225675825e-17 	0.964509054640712 	0.0658351390338061 	-1.62494095687027e-22
1.00000000000453e-06 	1.48301228337162 	2.77555756156289e-17 	0.967172209052514 	0.0656675393278681 	1.70195210267762e-22
1.00000000000453e-06 	1.50461756746086 	2.42861286636753e-17 	0.969902628380505 	0.0653870660557344 	4.2743201405446e-22
1.00000000000453e-06 	1.52701431637603 	2.77555756156289e-17 	0.972707445615696 	0.0649939188530212 	2.55712523138206e-22
1.00000000000453e-06 	1.55023152379144 	3.46944695195361e-17 	0.97559373618032 	0.0644888294571493 	-9.05755574399758e-23
1.00000000000453e-06 	1.57429924550461 	3.81639164714898e-17 	0.978568422941168 	0.0638730491855011 	-1.81127576239122e-22
1.00000000000453e-06 	1.59924863834497 	3.46944695195361e-17 	0.981638169716321 	0.0631483283897723 	-1.83700331516978e-22
1.00000000000453e-06 	1.62511200050782 	4.16333634234434e-17 	0.98480926277423 	0.0623168877346926 	-1.87387641530404e-22
1.00000000000453e-06 	1.65192281336593 	4.5102810375397e-17 	0.98808747988585 	0.0613813812363457 	1.99756556348205e-22
1.00000000000453e-06 	1.67971578481283 	3.81639164714898e-17 	0.991477946724806 	0.0603448510480774 	6.87062047599889e-22
1.00000000000453e-06 	1.70852689419381 	3.81639164714898e-17 	0.9949849807193 	0.0592106740585534 	3.91481104855793e-22
1.00000000000453e-06 	1.73839343888296 	4.16333634234434e-17 	0.998611922653579 	0.0579825004598969 	0
1.00000000000453e-06 	1.76935408256639 	4.5102810375397e-17 	1.0023609564091 	0.056664184521069 	0
1.00000000000453e-06 	1.80144890529426 	4.85722573273506e-17 	1.00623291737392 	0.0552597076004564 	0
1.00000000000453e-06 	1.83471945536634 	4.85722573273506e-17 	1.01022709039319 	0.0537730924688253 	0
1.00000000000453e-06 	1.86920880311829 	4.5102810375397e-17 	1.01434099424032 	0.0522083118917597 	1.3007270021581e-24
1.00000000000453e-06 	1.9049615966783 	5.20417042793042e-17 	1.01857013916013 	0.050569193502109 	2.55346859845372e-24
1.00000000000453e-06 	1.94202411976624 	5.8702771376512e-17 	1.02290774202478 	0.0488593133387685 	1.3016306721376e-24
1.00000000001227e-06 	1.98044435161019 	1.38777878078145e-17 	1.02734416732435 	0.0470819283697978 	0
1.00000000001227e-06 	2.02024009608346 	1.38777878078145e-17 	1.03182673160259 	0.0452566206674266 	0
1.00000000001227e-06 	2.06000503604194 	6.93889390390723e-18 	1.03622161799213 	0.0434366556443669 	0
1.00000000001227e-06 	2.09836474743797 	0 	1.0404056824602 	0.0416726947262608 	0
1.00000000001227e-06 	2.13536888877258 	0 	1.04434514561558 	0.0399792937095104 	0
1.00000000001227e-06 	2.17106536369585 	3.46944695195361e-18 	1.04804556810634 	0.0383542836250202 	0
1.00000000001227e-06 	2.20550038302045 	3.46944695195361e-18 	1.05151311149838 	0.0367949485453144 	0
1.00000000001227e-06 	2.23871852454379 	-6.93889390390723e-18 	1.05475430913626 	0.0352983627531313 	0
1.00000000001227e-06 	2.27076279075614 	-1.38777878078145e-17 	1.05777587388386 	0.0338615095090319 	0
1.00000000001227e-06 	2.30167466450941 	-1.38777878078145e-17 	1.06058453978912 	0.0324813932708748 	0
1.00000000001227e-06 	2.33149416271873 	-1.04083408558608e-17 	1.06318692738505 	0.0311551094932385 	0
1.00000000001227e-06 	2.36025988816627 	-1.04083408558608e-17 	1.06558943258091 	0.0298798833098481 	0
1.00000000001227e-06 	2.38800907947441 	-1.38777878078145e-17 	1.06779813873739 	0.0286530889487213 	0
1.00000000001227e-06 	2.41477765931296 	-1.38777878078145e-17 	1.06981874919131 	0.0274722568007122 	0
1.00000000001227e-06 	2.44060028090273 	-1.38777878078145e-17 	1.07165653686014 	0.0263350725868745 	0
1.00000000001227e-06 	2.46551037287587 	-1.38777878078145e-17 	1.073316307598 	0.0252393717090126 	0
1.00000000001227e-06 	2.48954018255081 	-1.38777878078145e-17 	1.0748023742398 	0.0241831308722082 	0
1.00000000001227e-06 	2.512720817678 	-1.38777878078145e-17 	1.07611853862647 	0.0231644583614809 	0
1.00000000001227e-06 	2.53508228671037 	-1.38777878078145e-17 	1.07726807927765 	0.022181583871971 	0
1.00000000001227e-06 	2.55665353765073 	-1.04083408558608e-17 	1.07825374272581 	0.0212328484636222 	0
1.00000000001227e-06 	2.57746249552637 	-1.04083408558608e-17 	1.07907773682604 	0.0203166949885882 	0
1.00000000001227e-06 	2.59753609853934 	-1.04083408558608e-17 	1.07974172460028 	0.0194316591899586 	0
1.00000000001227e-06 	2.6169003329393 	-6.93889390390723e-18 	1.08024681736264 	0.0185763615713593 	0
1.00000000001227e-06 	2.6355802666639 	-1.38777878078145e-17 	1.08059356600425 	0.0177495000728046 	0
1.00000000001227e-06 	2.6536000817905 	-2.08166817117217e-17 	1.08078194939429 	0.0169498435479374 	0
1.00000000001227e-06 	2.67098310584103 	-2.08166817117217e-17 	1.08081135888011 	0.0161762260139057 	0
1.00000000001227e-06 	2.68775184198057 	-2.77555756156289e-17 	1.08068057784286 	0.0154275416323114 	0
1.00000000001227e-06 	2.7039279981488 	-3.46944695195361e-17 	1.0803877551856 	0.014702740374305 	0
1.00000000001227e-06 	2.71953251516198 	-3.46944695195361e-17 	1.07993037149268 	0.0140008243224845 	0
1.00000000001227e-06 	2.73458559382185 	-3.46944695195361e-17 	1.07930519639532 	0.0133208445650928 	0
1.00000000001227e-06 	2.74910672106653 	-3.46944695195361e-17 	1.07850823539768 	0.0126618986429608 	0
1.00000000001227e-06 	2.76311469519732 	-3.46944695195361e-17 	1.07753466404353 	0.012023128515984 	0
1.00000000001227e-06 	2.776627650214 	-3.46944695195361e-17 	1.07637874681359 	0.0114037190232149 	0
1.00000000001227e-06 	2.78966307929018 	-3.46944695195361e-17 	1.0750337375057 	0.0108028968186805 	0
1.00000000001227e-06 	2.80223785741905 	-3.81639164714898e-17 	1.07349175702327 	0.0102199297737468 	0
1.00000000001227e-06 	2.81436826325886 	-4.5102810375397e-17 	1.07174364342157 	0.00965412684633746 	0
1.00000000001227e-06 	2.82607000020648 	-4.85722573273506e-17 	1.06977876765952 	0.0091048384277837 	0
1.00000000001227e-06 	2.83735821672614 	-5.55111512312578e-17 	1.06758480666512 	0.00857145718986885 	0
1.00000000001227e-06 	2.8482475259599 	-6.24500451351651e-17 	1.06514746289642 	0.00805341946819208 	0
1.00000000001227e-06 	2.85875202464506 	-6.24500451351651e-17 	1.06245011635468 	0.00755020723387575 	0
1.00000000001227e-06 	2.86888531136304 	-6.24500451351651e-17 	1.05947339068614 	0.00706135072459121 	0
1.00000000001227e-06 	2.87866050414343 	-6.24500451351651e-17 	1.05619460917263 	0.00658643182869325 	0
1.00000000001227e-06 	2.88809025744591 	-6.24500451351651e-17 	1.05258710845446 	0.00612508834382568 	0
1.00000000001227e-06 	2.89718677854204 	-6.24500451351651e-17 	1.04861936687747 	0.00567701926454627 	0
1.00000000001227e-06 	2.90596184331819 	-6.24500451351651e-17 	1.04425388912598 	0.00524199129290988 	0
1.00000000001227e-06 	2.91442681151997 	-6.59194920871187e-17 	1.0394457673927 	0.00481984681144388 	0
1.00000000001227e-06 	2.92259264145801 	-6.93889390390723e-17 	1.0341408088807 	0.0044105136078706 	0
1.00000000001227e-06 	2.93046990419395 	-7.28583859910259e-17 	1.02827307555734 	0.00401401669047432 	0
1.00000000001227e-06 	2.93806879722526 	-7.63278329429795e-17 	1.02176161798056 	0.00363049257146606 	0
1.00000000001227e-06 	2.94539915768639 	-7.28583859910259e-17 	1.01450608988468 	0.00326020640175723 	0
1.00000000001227e-06 	2.95247047508335 	-6.93889390390723e-17 	1.006380786435 	0.00290357227460911 	0
1.00000000001227e-06 	2.9592919035784 	-6.93889390390723e-17 	0.997226427045147 	0.00256117680495985 	0
1.00000000001227e-06 	2.96587227384056 	-6.93889390390723e-17 	0.986838651782311 	0.00223380560336451 	0
1.00000000001227e-06 	2.97222010447726 	-7.28583859910259e-17 	0.974951624499217 	0.00192247131227816 	0
1.00000000001227e-06 	2.97834361306218 	-7.97972798949331e-17 	0.961214155059203 	0.00162844039674184 	0
1.00000000001227e-06 	2.98425072677325 	-7.97972798949331e-17 	0.945153999684099 	0.00135325364867238 	0
1.00000000001227e-06 	2.98994909265478 	-7.63278329429795e-17 	0.926122679168561 	0.00109872813336165 	0
1.00000000001227e-06 	2.99544608751689 	-7.63278329429795e-17 	0.903206454366248 	0.000866909484855758 	0
1.00000000001227e-06 	3.00074882748522 	-7.97972798949331e-17 	0.875074575338557 	0.000660004565338268 	0
1.00000000001227e-06 	3.00586417721304 	-8.67361737988404e-17 	0.839702350457457 	0.000480761207289728 	0
1.00000000001227e-06 	3.01079875876789 	-9.0205620750794e-17 	0.793825200114457 	0.000333145870258907 	0
1.00000000001227e-06 	3.01555896020418 	-9.0205620750794e-17 	0.731787927422161 	0.00021286910321976 	0
1.00000000001227e-06 	3.02015094383281 	-9.71445146547012e-17 	0.643293495607207 	0.000103111028917873 	0
1.00000000001227e-06 	3.02458065419862 	-1.00613961606655e-16 	0.512959118836933 	2.25822296898896e-05 	0
1.00000000001227e-06 	3.02885382577583 	-1.04083408558608e-16 	0.332671949460305 	5.48664708911703e-06 	0
