/*--------------------------------*- C++ -*----------------------------------*\
  =========                 |
  \\      /  F ield         | OpenFOAM: The Open Source CFD Toolbox
   \\    /   O peration     | Website:  https://openfoam.org
    \\  /    A nd           | Version:  7
     \\/     M anipulation  |
\*---------------------------------------------------------------------------*/
FoamFile
{
    version     2.0;
    format      ascii;
    class       volScalarField;
    location    "10000";
    object      epsilon;
}
// * * * * * * * * * * * * * * * * * * * * * * * * * * * * * * * * * * * * * //

dimensions      [0 2 -3 0 0 0 0];

internalField   nonuniform List<scalar> 
15600
(
0.633976961757384
0.577792860622383
0.339962904306774
0.142414642099554
0.0402900707263203
0.0295291049917802
0.0311873138505836
0.0231459388554998
0.0172570846462454
0.0139298978745912
0.011690318323306
0.0104097526791393
0.00996166412209315
0.0102228068944883
0.0112198953825824
0.0129565654964673
0.0154174383558406
0.0184030539806574
0.0218831919508532
0.0257869497634633
0.0299296938641874
0.0340911782504742
0.0385427194439722
0.0434691099472987
0.0486730933257144
0.0541344594480913
0.0598440820196153
0.0659344387613874
0.0826095080419372
0.105332951529284
0.124744140979582
0.141715958141091
0.157221756892809
0.171456268180501
0.184337153572105
0.19573770876446
0.205867244252691
0.214733693546152
0.222367948482666
0.228806992898437
0.234098832913676
0.238301437278196
0.241481945820611
0.243713933138281
0.245075416674486
0.245646285298458
0.245506428088869
0.244733898271734
0.243403621537758
0.241586338025537
0.239347947158804
0.236749042343715
0.233844743610384
0.230684656841838
0.227313027500311
0.223768936086559
0.220086686566585
0.216295950625905
0.21242171935476
0.208486104774319
0.204507134552088
0.200499700098793
0.196476601799209
0.192447516801327
0.188419811317172
0.184398934949278
0.180388511063094
0.176390501924424
0.172405342544469
0.168432030553309
0.164468223266354
0.160510233788093
0.156553106174884
0.152590469323798
0.148614647172219
0.144616238983374
0.140584425610242
0.136505946854801
0.132366028066681
0.128146013291031
0.123827765314391
0.119362006635645
0.114772939274804
0.110071819850179
0.10520364789388
0.100074151780879
0.0946253284827616
0.0887246712911771
0.0823074554076889
0.0751776137294667
0.0670789321378785
0.0568614872961163
0.0507528040062844
0.0557324061301241
0.0625935256851588
0.0720312423521916
0.0828058117143596
0.0954522630822905
0.110801312900536
0.129659612426343
0.15003230852051
0.171929721064212
0.194813100550236
0.218001784775326
0.237363672885683
0.255936146544811
0.276048771201499
0.299009287133435
0.327529476009371
0.368279018699548
0.432400810649032
0.512332423273412
0.612885641425554
0.751972005306768
0.92212333435924
1.03897951779459
0.864851733975183
0.670818443978313
0.546044831994094
0.595866144810624
2.29922203230964
2.10859357211225
1.41670484436782
0.603743222140796
0.159602531687911
0.107882280546316
0.113630551990114
0.0851051431780716
0.0634477882639633
0.0511100445057928
0.0428243335462889
0.0380815968085884
0.0363776749308925
0.0373026650968328
0.0409615280551728
0.0473679802458239
0.0564072786579288
0.0673704524101831
0.0800550594549122
0.0940272296278354
0.108477700993435
0.122794608429883
0.13774529759366
0.153591350751885
0.169899489543187
0.187071305068882
0.207073864791441
0.238801046078271
0.295686901726198
0.356023507420146
0.404442243125537
0.445840629862992
0.482751135995352
0.516070188172173
0.545984070699798
0.572205345288395
0.595025451968909
0.614630596073924
0.631225974424936
0.645002152967812
0.656150283733767
0.664862080170863
0.671330760488976
0.675748390494187
0.67830423661377
0.679182109249057
0.678558586476239
0.676601181516611
0.673467172322051
0.669302680993104
0.664242234986148
0.658408529150019
0.651912553702959
0.644853863216272
0.637321078876788
0.629392444203928
0.621136588535366
0.612612957727077
0.603871483137697
0.594956263687953
0.585903790094423
0.576743624202355
0.567500627212564
0.558193750602246
0.548836997206441
0.539440130774971
0.530008898536462
0.520545293685849
0.511047759237183
0.501511301786064
0.491927590279708
0.482284870857756
0.472567965224587
0.462757886277124
0.452831795167644
0.442762066570153
0.432516408361573
0.422055771433551
0.411335213839355
0.4002992839167
0.388888845777857
0.377014895990136
0.364831682151897
0.352306641345911
0.339200860836397
0.32526508763734
0.310273395514881
0.293888849905099
0.27576606881171
0.255419709197808
0.231846520754161
0.201659955735341
0.179532086443475
0.188157604818733
0.209248974831576
0.238890698528907
0.273748772434397
0.315269657009834
0.36605246353488
0.428362742065363
0.497067419622568
0.571687702154793
0.6507831538188
0.732155445750963
0.804528089435434
0.875355068354618
0.952007708762023
1.03933971205463
1.14639646147456
1.29500889367348
1.52056201818637
1.80266649312411
2.15301183830618
2.61427781940609
3.15605678023401
3.57108350027039
3.37520364069382
2.87713585960879
2.34850854733166
2.27543946616677
3.22518783962713
2.87277496877722
2.25286375818077
1.2473218228071
0.335623010365433
0.194697297180506
0.199369820048649
0.153486023272309
0.116099710260076
0.0937297372405935
0.0785579671766152
0.0696159118511608
0.0661410260788165
0.0673460090130774
0.0732439250698713
0.0835187398412572
0.0974288426657888
0.113209076360745
0.129836856586662
0.146110449930364
0.160834681447034
0.17362476276579
0.185914428008708
0.198774541242964
0.212780480679168
0.229550397327211
0.2518437453455
0.281886449304494
0.326618624824232
0.373008559182231
0.411438443322854
0.444988140612581
0.474785098580862
0.500923316653564
0.523329244603254
0.543337079732085
0.56095020086651
0.57630475796154
0.589525072332375
0.600728309124749
0.610032694026613
0.617557936021273
0.623425843945784
0.627759135256057
0.630680324157245
0.632310207867969
0.632766578971205
0.632162991975783
0.630607796026926
0.628203361411957
0.625045549632615
0.621223353087617
0.616818736280576
0.61190661853269
0.606554989925783
0.600825128135627
0.594771847563114
0.588443831046311
0.581883569599065
0.575128514424046
0.56821117881657
0.561159161370055
0.55399588989675
0.546740741641214
0.539409287769495
0.532013650250183
0.524562725087995
0.517062358103128
0.50951548104653
0.501922201601081
0.494279849261412
0.48658295433855
0.478823179757489
0.470989150653309
0.463066238156054
0.455036164119002
0.446876579784315
0.438560300486239
0.430054556718182
0.421319621018704
0.412307704199303
0.402976638545303
0.393044578267522
0.382573685052745
0.371567345950649
0.359851714752848
0.347222876840318
0.333384322720251
0.317991745566114
0.30046237026538
0.280194994325608
0.253888967048915
0.233591817464216
0.238361919422746
0.255213930720276
0.282765321913991
0.318629990387619
0.363164047711789
0.418390780662712
0.485811894383708
0.562812282018834
0.647950408574195
0.740127529689309
0.837491142838919
0.934507481965934
1.03493914373834
1.14543579504079
1.27220775021601
1.42370396731597
1.61672162532647
1.87302350854267
2.17644572147584
2.51510304122165
2.87549592119719
3.21333928594837
3.44966913864094
3.45615852320527
3.44984218913583
3.44596644251281
3.45321871831564
2.78228240617928
2.48554437199306
2.17161432670221
1.65984503163866
0.624262001563878
0.27061360476548
0.242894783948783
0.195008136534037
0.152551460713421
0.124259450181033
0.104318896872539
0.0919754341458201
0.0864315439329631
0.086562745462639
0.0918195012462161
0.101025815059538
0.11253046381918
0.124259081239704
0.135322038140178
0.145152996008118
0.153581995588492
0.161135242015057
0.169203936581225
0.178752178296117
0.190563312385777
0.206093772008657
0.227039198101095
0.254010716255755
0.288546086379467
0.322846567793939
0.351913161267515
0.377567848552697
0.400305876116175
0.419990425536149
0.437329610250444
0.452905398310613
0.46670354090302
0.478813649195597
0.489313824819483
0.498281911937312
0.505798455291002
0.511946867242522
0.516813257859698
0.520485520681901
0.523052286475847
0.524601777980267
0.525220740629979
0.524993481074419
0.52400106232392
0.522320663802205
0.52002510561276
0.517182516196933
0.513856136021385
0.510104243487355
0.505980172038902
0.501532417718391
0.496804812246828
0.49183664719885
0.486662752929965
0.481314026733832
0.475817701328578
0.470197428614205
0.464473561137877
0.458663458353833
0.452781610524626
0.446839859677927
0.440847589048857
0.434811868834148
0.428737573102559
0.422627470885332
0.416482279686662
0.410300693011238
0.404079351466215
0.397812794526052
0.391493313295259
0.385110811760843
0.378652462737929
0.372102471709382
0.365441340431211
0.358645614542343
0.351685572322045
0.344539817425111
0.337065127834131
0.329109457927872
0.32076695180137
0.311970425441017
0.302592955086946
0.292455911618155
0.28132632978035
0.268834580624517
0.254605940264642
0.23665436983094
0.221590552930343
0.221080350002467
0.230234884372607
0.248796165861129
0.275336258231405
0.30942857620556
0.35195388751062
0.403538649579233
0.463120049469371
0.529471133282705
0.601763442172513
0.678779861896425
0.758657545359341
0.84283136525615
0.935143564289098
1.04012746992942
1.16325309372397
1.31283467340011
1.49577898454646
1.70288279232781
1.91977908898449
2.12524056396415
2.29866125702198
2.4387228235253
2.52705774722178
2.61026407260098
2.80128087187729
2.92754364998721
2.23217661331559
2.03861801521562
1.87962451943335
1.77018145337615
0.966114367303721
0.358202726578734
0.246165243544737
0.198928921007452
0.160585804658278
0.132171150660589
0.111210028359865
0.0977280072952735
0.0909815780918518
0.0898252011296541
0.0933219245827827
0.0999663002902486
0.108058522366594
0.116078846651956
0.12352329220791
0.130206155208117
0.136302680985118
0.142431485446577
0.149565856306082
0.158443422703375
0.169867534682844
0.18505285614362
0.205122731159032
0.230124687127288
0.258533356335997
0.285194427701685
0.308291673849219
0.328898777294451
0.347189590757063
0.363250052514859
0.377591902228103
0.39049592261007
0.401961391473411
0.412053836887073
0.420830384109634
0.428350230249242
0.434675496137759
0.439871399548266
0.444005806321063
0.44714848640105
0.449370173138717
0.450741627602975
0.45133273063099
0.451211687145571
0.450444343231354
0.449093642543621
0.447219210863555
0.444877062130489
0.442119409126557
0.4389945785341
0.435546997139311
0.431817270545927
0.427842315697937
0.423655322031492
0.419286019412024
0.414760892175916
0.410103466192265
0.405334406067684
0.400471666953095
0.395530783510173
0.390524972699606
0.385465297258365
0.380360824409768
0.375218753218935
0.370044519514955
0.364841883428069
0.359612987794021
0.354358403274974
0.349077127324205
0.343766583122805
0.338422532340872
0.333039028943495
0.327608184305239
0.322120097330785
0.316562314777597
0.310919867567991
0.305173279755273
0.299308894429592
0.293250993703315
0.286876618884696
0.280212113809261
0.273243305149315
0.265898371537996
0.258072523482683
0.249615509448718
0.240313472393988
0.229912841471736
0.21730871045928
0.205680747789111
0.202306005577595
0.206908248358207
0.219479382031308
0.239123914364669
0.265215113226671
0.298006305159956
0.337659850309519
0.383621152811425
0.434984057948561
0.491075592962976
0.551028473604492
0.61419629951439
0.681234312551007
0.754276948956226
0.836262974318551
0.93067947579485
1.0418057581467
1.17135860298919
1.31415578375947
1.4604307463284
1.59494399922279
1.70784322772213
1.81111266887421
1.92127752277093
2.01486391825892
2.17171963288499
2.28792622190033
1.8218473453741
1.7003791955566
1.60688710116565
1.70074856794507
1.22849424470675
0.481564614858612
0.245906751435263
0.187799513800058
0.153445507386518
0.127160865424469
0.107419189185236
0.0945630449586435
0.0878795986521897
0.0863406208918872
0.0888861549617494
0.0940088930201568
0.100197038670806
0.106354652315233
0.112161679740609
0.117577588442707
0.122878255290827
0.128634023355635
0.135568043524004
0.144304116966598
0.155607734416329
0.170468387126202
0.189612925810751
0.212581103761855
0.236683133902541
0.258538614452182
0.277842495186343
0.295203664136193
0.310681285453799
0.324443469977922
0.336816297728549
0.347953580050088
0.357864231544926
0.366599598029733
0.374205359523056
0.380730092120649
0.386225234900896
0.390745284671788
0.394347242291141
0.397089974334476
0.399033360663841
0.400237486921728
0.400761847322552
0.400664654165187
0.400002238993325
0.398828574794077
0.397194907077741
0.395149490954397
0.392737415426957
0.390000519106586
0.386977365662767
0.383703344697759
0.380210653856914
0.376528367371972
0.372682669018695
0.368696958652347
0.364592114046349
0.360386595456487
0.356096552711991
0.35173607315493
0.347317280491825
0.34285046954884
0.338344243090788
0.333805626678215
0.329240165553057
0.324652008426964
0.320043968652048
0.315417576983744
0.310773098702177
0.306109555060557
0.301424677882194
0.296714905529286
0.291975231321744
0.28719919998448
0.282378536047531
0.277503261928339
0.272560201701828
0.267539926582427
0.262399571426366
0.257056420972404
0.251502464760923
0.245738428433997
0.239725510127926
0.233403418543716
0.22667778913223
0.219427386342208
0.211483715729579
0.202268894759635
0.193184563090999
0.188777534736839
0.190741826718934
0.199490861136066
0.214491736517327
0.235135018338961
0.261362994311644
0.293087927632681
0.329926279807658
0.371195875204945
0.416332337548323
0.464670479880961
0.516016130240789
0.570781410528579
0.63023830676121
0.696334543638628
0.771425424619047
0.857924781866838
0.955709593116394
1.06148704201693
1.16893442196986
1.26770590660692
1.35228785636278
1.43462849341461
1.54020727485065
1.63812210067839
1.75957340466563
1.84288624029133
1.53345832890999
1.45354064006558
1.39024920527666
1.5620222664018
1.36238060281388
0.632014654281349
0.260280262621216
0.178120684678761
0.144392465555447
0.120027565950759
0.101813525309336
0.0899705073421833
0.0837489318619668
0.0821998614880463
0.084242835042509
0.0884590131293649
0.0935309431409409
0.0986321990782388
0.103549800752348
0.108321917764259
0.113259422904034
0.118874138787928
0.125745062447672
0.13442306508477
0.14560021477976
0.160058102340764
0.178208231042201
0.199226552823331
0.220175122653193
0.238857043839007
0.255610613535753
0.270765685401879
0.284343651205059
0.296522087828378
0.307509308171773
0.31739969298629
0.326207296000955
0.333974251848836
0.340739106162332
0.346543607121751
0.351432286686383
0.355452655987027
0.358654609987194
0.361089852147286
0.36281110634978
0.363871389596192
0.364323289643301
0.364218342826983
0.363606492669782
0.362535657000246
0.361051392939592
0.3591966572629
0.357011643501532
0.354533701463079
0.351797321855669
0.348834218424717
0.345673237376563
0.342340531816991
0.338859716778314
0.335251946289439
0.331536144836154
0.32772911491241
0.323845628650374
0.31989863908975
0.315899378588408
0.311857477846218
0.307781087750352
0.303676985566324
0.299550666450007
0.295406424401666
0.29124741538643
0.287075714292487
0.282892344647744
0.278697313124869
0.274489593788742
0.270267147706392
0.266026832196394
0.261764430771403
0.257474408327145
0.253150053727046
0.248782414608013
0.244364971463403
0.239872362982881
0.235250983611595
0.230480830716355
0.225566514891162
0.220488640777518
0.215215127188825
0.209690134899244
0.203850066339039
0.197586937218583
0.190643541506708
0.183521449046074
0.178994854737205
0.179432110330668
0.185646180617742
0.197405062401311
0.214196869454737
0.23581711644789
0.262040285362042
0.292542267235597
0.326785711808081
0.364286774041917
0.404511174133395
0.447455228859237
0.493455709721127
0.543340549465488
0.598461240504767
0.660499949732176
0.730916972642157
0.808886607256205
0.892065866961031
0.976250761527338
1.05423753265412
1.12247960088439
1.19081130942156
1.28430466431859
1.37983175238457
1.4828514641069
1.54433332817318
1.32564013237706
1.26952828510942
1.22307366145391
1.40855214891021
1.41812632896014
0.787524694184879
0.293895688761394
0.174502617050487
0.137624922434469
0.114300142583656
0.0972529249547093
0.0862408866048373
0.0804296829484208
0.0788951179016203
0.0805662061454476
0.0841285406527154
0.08842828378792
0.0928162935776655
0.0971518567697237
0.101521182905176
0.106242600511917
0.111775044345504
0.118605353798087
0.127223780199528
0.138233769957622
0.152232089652401
0.16938374615562
0.188657185142247
0.207246201139398
0.223725993443355
0.238676312464019
0.252259106590081
0.264486912881782
0.275516526250849
0.28548569551548
0.294458240804226
0.302450601342868
0.30949854089522
0.315635767337065
0.320899312760405
0.325328948808274
0.328967364173128
0.331859551900869
0.334052268988831
0.335593292521855
0.33653074234185
0.336912408772889
0.33678517513303
0.33619451555357
0.335184092900837
0.333795448227785
0.332067778394176
0.330037783894245
0.327739592796874
0.325204775210386
0.322462330437745
0.319538676857291
0.316457813517331
0.31324144072175
0.309909029840214
0.306478027561744
0.302963964552547
0.299380543273085
0.295739820805169
0.292052307588809
0.288327077463673
0.284571879416773
0.280793237783937
0.276996540245056
0.273186116927385
0.269365305196834
0.265536509495821
0.261701240350092
0.257860157658476
0.25401307671032
0.250159003294118
0.246296087920715
0.242421676445347
0.238532159818514
0.234623125010969
0.230688627537853
0.226724380108678
0.22271520543944
0.218626495582412
0.214438245085187
0.210154700602876
0.205768731235274
0.201267055212528
0.196621154142759
0.191805329818569
0.186756067425592
0.181413486710809
0.175826631838336
0.171601021462325
0.17118374926136
0.175668431377484
0.185077152436273
0.199024453104359
0.217248484755766
0.239450802505327
0.265327911577746
0.29443671739376
0.326354305251387
0.36063828588942
0.397370559912964
0.43686512415301
0.479710227067663
0.526889264608515
0.579659293063001
0.638944870106117
0.703658215496137
0.771993355106951
0.841050457551367
0.90561881914672
0.963118403721388
1.02127883341507
1.10208019867176
1.19076116549602
1.28278281228152
1.3329719569785
1.16919835552158
1.12768512242487
1.09288226433932
1.26183062327736
1.41834742347972
0.933257841603683
0.349442803967772
0.178033425133412
0.133824071987255
0.110486450564383
0.0941353921966225
0.0836655054483928
0.0781083128903375
0.0765220650198169
0.0778490500326575
0.0808734183414159
0.0845737403258823
0.0884223606908818
0.0923293756178468
0.096410007423274
0.100976475663742
0.10644206396314
0.113228019364994
0.12176825405908
0.132574794870503
0.146085970514647
0.162282800650924
0.180046177000122
0.196838914535532
0.211732013781493
0.22536097029505
0.237787052121663
0.24901929695627
0.259188771511473
0.268389329915615
0.276667740705307
0.284041283925675
0.290541123746536
0.296197508544161
0.301044074510919
0.305117194726286
0.308456125992375
0.311102387173214
0.313099234537921
0.314490946181087
0.315322174421841
0.315637306104805
0.315479913860114
0.314892280360587
0.313915017224888
0.312586772057533
0.310944018890236
0.309020914696728
0.306849235942154
0.304458393464581
0.301875362141133
0.299124759882318
0.296228964898916
0.293208224370771
0.290080725179145
0.286862776230865
0.28356891772739
0.280212010061472
0.276803395683206
0.273352998423324
0.269869428431501
0.266360087265918
0.262831264067625
0.259288221387742
0.255735273288549
0.25217585174955
0.248612568866806
0.245047263073687
0.241481049025098
0.237914340137033
0.234346895069101
0.230777805889801
0.227205563605078
0.223627979105524
0.220042338841902
0.216444933431771
0.212833277457868
0.209198573074222
0.205518895913666
0.201778209462071
0.197980401590216
0.194126286120184
0.190215540268861
0.186239442785479
0.182198212920579
0.17806200420329
0.173891692545381
0.169516495159805
0.165770288853103
0.164918675649396
0.168209364627419
0.175869029324357
0.187643844115558
0.203265522330334
0.22240307776663
0.244761218628523
0.269959924478915
0.297623155122624
0.327376600861594
0.35934068132747
0.393822015567523
0.431273584267473
0.472444335181064
0.518309067627232
0.569469311982574
0.624767443557677
0.682740975743584
0.741316898815936
0.796568128409991
0.846392103194999
0.896755990683605
0.966130220123851
1.04616064376934
1.12958296971737
1.17407301988068
1.04641151412266
1.0146584329299
0.989190458288017
1.13020126348993
1.3807019726642
1.05415544378895
0.428458488576733
0.189615164951483
0.133019242237861
0.108442959267456
0.0923175622459046
0.082110139016569
0.0766448851943106
0.0749284949764588
0.0759096188648706
0.0784579497860068
0.0816582109013744
0.0850684300292371
0.0886344988905323
0.0924879289199137
0.0969279373620792
0.102328390281936
0.109059502449322
0.117501441597574
0.128078771668011
0.141098096630507
0.156409785739574
0.17288729027572
0.188293963857895
0.202013369571907
0.214651283185399
0.226208373362894
0.23669008248916
0.246203619443972
0.25481457825766
0.262559460989969
0.269455541771441
0.275530559289837
0.280812206227206
0.285331621381835
0.289122716155015
0.29222228200305
0.294669360800677
0.29650472207668
0.297770163007477
0.298507876196822
0.29875982969197
0.298567235706294
0.297970092072713
0.297006815061099
0.295713958968253
0.294126016140207
0.29227528036592
0.290191809368347
0.287903380969075
0.28543547001654
0.282811339599222
0.280052136950687
0.277176996266092
0.274203113776278
0.271145913393519
0.268019156741971
0.264835035245168
0.261604317043469
0.258336447154074
0.255039649729428
0.251721028970001
0.248386662768934
0.245041687394341
0.241690375290237
0.238336203141825
0.234981916249156
0.231629580599378
0.228280638106274
0.224935942058938
0.221595812630069
0.218260051185187
0.214928017739631
0.211598606237115
0.208270405201527
0.204941418333441
0.201610651432056
0.198273554661972
0.194916925099499
0.191529586680215
0.188115869760419
0.184681986286391
0.181236768063695
0.177786037355537
0.174348165057765
0.170919288172101
0.167632262581808
0.164219774804223
0.161010934542403
0.159991386593026
0.162459711906033
0.168796554345349
0.178872231482814
0.192441194814845
0.209166225129131
0.228758099425551
0.250880690470096
0.275194723916368
0.301378303717846
0.329567715565098
0.360065399695949
0.393245043454612
0.429702165900511
0.470216763788905
0.51518611911133
0.563474456495376
0.613865061739584
0.66482312429999
0.713255601435131
0.757269729871833
0.801404990357731
0.86097261194707
0.932048528319515
1.00765212971535
1.04884122834505
0.946682094515791
0.921961985853987
0.904402847764672
1.01563697069489
1.31863831322911
1.14262371825706
0.528184281042056
0.210696363777585
0.135345646336081
0.108009018446018
0.091620801305424
0.0814145616912879
0.0758891603079849
0.0739667038061752
0.0745895942608651
0.076697240060543
0.0794588379385291
0.0824937102232187
0.0857723800691113
0.0894338356556371
0.0937607705266486
0.0990925150683725
0.10575691098969
0.11408313357011
0.124415711233577
0.136954593047965
0.151462490832117
0.166854410079742
0.181181264767245
0.194017907329717
0.205902720621585
0.216799619535569
0.226709381235232
0.235718689488099
0.243874321531359
0.251206106128813
0.257730853426751
0.263473690418958
0.268460388841883
0.272720243098299
0.276285390199885
0.279190871293076
0.28147399120133
0.28317378689756
0.28433033261498
0.284984112267226
0.285175409354988
0.284943784801502
0.284327628696051
0.283363801769031
0.282087363799077
0.280531380846018
0.27872680004682
0.276702418478497
0.274484794452245
0.272098294387374
0.269565162441517
0.266905611219024
0.264137921736015
0.261278524322261
0.258342152172667
0.255341952594668
0.252289583227883
0.249195348695907
0.246068301938484
0.242916345422398
0.239746329718644
0.23656414579974
0.233374809386565
0.230182539031749
0.226990825938485
0.223802500469933
0.220619789151321
0.217444374506522
0.214277440856686
0.211119737377888
0.207971612928748
0.204833103668533
0.2017039503608
0.198583765109903
0.195471895413376
0.192368597357063
0.189272296725746
0.186175943151511
0.183073012743216
0.179968938590798
0.176873819104955
0.173803076468108
0.170773291992094
0.167815692119336
0.164946635584202
0.162339431413752
0.159695872555292
0.157021837519261
0.156002830940223
0.157913947964472
0.163242086605525
0.171967133338819
0.183882085881237
0.198660881920145
0.216022191638468
0.235661974561608
0.257270453335209
0.280567289260519
0.305693340274857
0.3329463407259
0.3626519844599
0.395303141793387
0.431541336319097
0.471631392836117
0.5145061859589
0.559141064439655
0.60435581857669
0.647594834893235
0.68701659881269
0.726006503879025
0.777253489662177
0.839796263526294
0.907992528906301
0.946726575325828
0.863499689729565
0.844126411397489
0.83326409828354
0.91756801397082
1.24133592862426
1.19713368562708
0.641080670977755
0.24338847973793
0.141232975433836
0.109140610299211
0.0919310471532385
0.0814672146965537
0.0757347836260357
0.0735316533805389
0.0737770659041269
0.0754627265207695
0.0778238810677138
0.0805235087125982
0.0835480719698575
0.0870377165180985
0.0912568241667873
0.0965139157523252
0.103100117996088
0.111296930427002
0.121377833111086
0.13345849534373
0.147247176300538
0.161727721342207
0.175208771165957
0.187376159895974
0.198686436724703
0.209080861430611
0.218554574430476
0.227176917490519
0.234981672208373
0.241993967951267
0.248229905963391
0.253712584946073
0.258466326658107
0.262519081678134
0.265901744508907
0.2686481634525
0.270794484274637
0.272378601132585
0.273439457877696
0.27401641663865
0.274148649812437
0.273874620579844
0.27323163962126
0.272255511216859
0.270980267684697
0.269437982034499
0.267658664650531
0.265670189094004
0.263498238899201
0.261166370236609
0.258696071546088
0.256106853531065
0.253416348632781
0.250640398436829
0.247793198976308
0.244887413810978
0.241934274839312
0.238943712319875
0.235924457794655
0.232884145434596
0.22982940968931
0.22676597719961
0.223698751474538
0.22063189174974
0.217568884681642
0.214512613025031
0.211465416929949
0.208429157881336
0.205405272992905
0.202394844604047
0.199398651488748
0.19641726543003
0.193451101440364
0.190500591587695
0.187566156243738
0.184649107160645
0.181750043057945
0.178866351399109
0.175995591685451
0.173144683176695
0.17032667689913
0.167561807704367
0.1648746238826
0.162305454498459
0.159886375767714
0.157810665968827
0.155783649393158
0.15361206500926
0.152697801490888
0.154243748405403
0.158801107059133
0.166441152639451
0.177002539035283
0.190181643119804
0.205708106983125
0.223302728619516
0.242680000340057
0.263593341176596
0.286182563177574
0.310739393366993
0.337559691586666
0.367066437635372
0.399800565424254
0.435941046811793
0.474514653132163
0.514655749000736
0.555414897259934
0.594570317747639
0.630232928895474
0.664850206717927
0.709020895541423
0.763747407200128
0.824935378148031
0.861408636788031
0.792698530946835
0.777530922883816
0.772189509436869
0.834434047336042
1.15500573459183
1.2199568460804
0.755718235984441
0.290432739417711
0.151481160357446
0.111938864364184
0.0932100806952546
0.0822097856597606
0.0761194215289033
0.0735576373027403
0.0733990076398791
0.0746686417795427
0.0766513774803317
0.0790402582861082
0.0818306007751701
0.0851589759414745
0.0892705472201026
0.0944458699258108
0.100943440525435
0.109000906753508
0.118830111243237
0.130481707786786
0.143634290300214
0.157353524051643
0.170171550890137
0.181832005493631
0.192706471561512
0.202721736898784
0.211866605004895
0.220195676624437
0.227733360518989
0.234501190850405
0.240514429007751
0.245794574696624
0.250364865474084
0.254252309679021
0.257486990578578
0.2601020187677
0.262132853451955
0.26361672807535
0.26459193989633
0.265097207689501
0.265171059377847
0.26485131008431
0.264174619615966
0.263176140006549
0.261889253909004
0.260345396483738
0.258573958283844
0.256602172918043
0.254455126231702
0.252155802796518
0.249725147707036
0.247182157697156
0.244543982040534
0.241826016824499
0.239042045205434
0.236204353022589
0.233323834491531
0.230410118439841
0.22747167330363
0.224515909525512
0.221549277388455
0.218577359349295
0.21560495561282
0.212636164191557
0.209674454614175
0.206722738839876
0.203783436409173
0.200858542148867
0.197949687592316
0.195058216374755
0.192185248728213
0.189331786087185
0.186498787386404
0.183687350592423
0.180898764175458
0.178135234452331
0.175399001080284
0.172690714867842
0.170011377229067
0.167369546054812
0.16478061049813
0.162268352743854
0.159863189510759
0.15761181558189
0.155558397092068
0.153902919354672
0.152371504996778
0.150656511990274
0.149908103819573
0.151228783398118
0.155198878896112
0.161961752489323
0.171403021329064
0.183248357160299
0.197241482744039
0.213123604012481
0.230629717107802
0.249541254615894
0.269994360986372
0.292273677586342
0.316656132956219
0.343516483695738
0.373321602963192
0.40619701318904
0.441277637313604
0.47783311739582
0.515055819403306
0.550913077605617
0.583404965187411
0.614212402770744
0.652319139494344
0.70002736537109
0.754661568849211
0.788841336800855
0.731494376626645
0.719700687284439
0.718739569864923
0.764278395487653
1.06460607826915
1.21553004584075
0.86221275335068
0.354229069402141
0.167334559584704
0.116670075701321
0.0954947367962145
0.0836313828599835
0.0770174801760149
0.0740102313745694
0.073411847898934
0.0742600636192049
0.0758737022828
0.0779646249027858
0.0805309158313138
0.0837018169228492
0.0877027807524945
0.0927885854856141
0.0991883215716485
0.10709992430507
0.116682756611287
0.127938589505047
0.140534301007365
0.153621312620883
0.165922090575692
0.177202917211435
0.18775264024227
0.197488128863513
0.206391372792193
0.214504202603386
0.221843899839659
0.228429015355329
0.234273897245461
0.239398768716854
0.243826078695581
0.247582228799253
0.250696855824836
0.253202720126473
0.255134996919124
0.256530669311051
0.257427798864593
0.257864866272338
0.257880149117168
0.257511193207799
0.256794367436381
0.255764510180102
0.254454670085088
0.252895947648459
0.251117356612257
0.249145747287521
0.24700583018206
0.244720215947754
0.242309482108394
0.239792266885328
0.237185373148811
0.234503869846114
0.231761229886299
0.228969449042907
0.226139156789638
0.22327974100908
0.220399455587646
0.217505524625683
0.214604241362144
0.211701061621315
0.208800690781649
0.205907165415496
0.203023929162331
0.200153905968439
0.197299568786634
0.194463010807411
0.191646012980528