/*--------------------------------*- C++ -*----------------------------------*\
  =========                 |
  \\      /  F ield         | OpenFOAM: The Open Source CFD Toolbox
   \\    /   O peration     | Website:  https://openfoam.org
    \\  /    A nd           | Version:  7
     \\/     M anipulation  |
\*---------------------------------------------------------------------------*/
FoamFile
{
    version     2.0;
    format      ascii;
    class       volScalarField;
    location    "10000";
    object      kDeficit;
}
// * * * * * * * * * * * * * * * * * * * * * * * * * * * * * * * * * * * * * //

dimensions      [0 2 -3 0 0 0 0];

internalField   nonuniform List<scalar> 
15600
(
0.0272610093555675
0.0248450930067624
0.0146184048851913
0.00612382961028084
0.00173247304123177
0.00126975151464655
0.00134105449557509
0.00099527537078649
0.00074205463978855
0.000598985608607421
0.000502683687902156
0.000447619365202989
0.000428351557250006
0.000439580696462997
0.000482455501451044
0.000557132316348094
0.000662949849301145
0.000791331321168267
0.000940977253886687
0.00110883883982892
0.00128697683616006
0.00146592066477039
0.0016573369360908
0.00186917172773384
0.00209294301300572
0.00232778175626793
0.00257329552684346
0.00283518086673966
0.0035522088458033
0.0045293169157592
0.00536399806212203
0.00609378620006693
0.00676053554639079
0.00737261953176154
0.00792649760360053
0.00841672147687178
0.0088522915028657
0.00923354882248453
0.00956182178475464
0.00983870069463279
0.0100662498152881
0.0102469618029624
0.0103837236702863
0.0104796991249461
0.0105382429170029
0.0105627902678337
0.0105567764078214
0.0105235576256845
0.0104663557261236
0.0103882125350981
0.0102919617278286
0.0101802088207797
0.0100553239752465
0.00991944024419903
0.00977446018251336
0.00962206425172204
0.00946372752236314
0.00930072587691392
0.0091341339322547
0.00896490250529571
0.00879380678573979
0.00862148710424811
0.008448493877366
0.00827524322245704
0.0081020518866384
0.00792915420281894
0.00775670597571305
0.00758479158275024
0.00741342972941216
0.00724257731379227
0.00707213360045324
0.00690194005288801
0.00673178356552002
0.00656139018092332
0.0063904298284054
0.00621849827628507
0.00604513030124041
0.00586975571475645
0.00569173920686726
0.00551027857151433
0.00532459390851881
0.00513256628533276
0.00493523638881659
0.00473308825355772
0.00452375685943683
0.00430318852657779
0.00406888912475875
0.00381516086552061
0.00353922058253062
0.00323263739036707
0.00288439408192878
0.002445043953733
0.00218237057227023
0.00239649346359533
0.00269152160446183
0.00309734342114424
0.00356064990371746
0.00410444731253849
0.00476445645472306
0.00557536333433274
0.00645138926638194
0.00739297800576113
0.00837696332366013
0.009374076745339
0.0102066379340844
0.0110052543014269
0.0118700971616645
0.0128573993467377
0.014083767468403
0.0158359978040806
0.0185932348579084
0.0220302942007567
0.0263540825812988
0.032334796228191
0.0396513033774473
0.0446761192651676
0.0371886245609329
0.0288451930910675
0.023479927775746
0.0256222442268568
0.0988665473893145
0.0906695236008268
0.0609183083078161
0.0259609585520542
0.00686290886258018
0.00463893806349157
0.00488611373557491
0.00365952115665708
0.00272825489535042
0.00219773191374909
0.00184144634249042
0.0016375086627693
0.00156424002202838
0.00160401459916381
0.00176134570637243
0.00203682315057043
0.00242551298229094
0.00289692945363787
0.00344236755656122
0.00404317087399692
0.0046645411427177
0.00528016816248498
0.00592304779652739
0.00660442808233106
0.00730567805035702
0.00804406611796191
0.00890417618603196
0.0102684449813657
0.0127145367742265
0.0153090108190663
0.0173910164543981
0.0191711470841086
0.0207582988478002
0.0221910180914034
0.0234773150400913
0.024604829847401
0.0255860944346631
0.0264291156311787
0.0271427169002722
0.0277350925776159
0.028214462200552
0.0285890694473471
0.028867222701026
0.02905718079125
0.0291670821743921
0.0292048306977094
0.0291780192184783
0.0290938508052143
0.0289590884098482
0.0287800152827035
0.0285624161044043
0.0283115667534508
0.0280322398092272
0.0277287161182997
0.0274048063917019
0.0270638751007689
0.0267088733070207
0.0263423571822643
0.025966473774921
0.025583119338582
0.0251938629740602
0.0247999758407013
0.0244025269701402
0.0240023312758966
0.023599990879877
0.0231959256233237
0.0227903826370679
0.0223834476284915
0.0219750536471989
0.0215649859768008
0.0211528863820275
0.0207382494468835
0.0203204225046572
0.0198985891099163
0.0194717671922087
0.0190387688625166
0.0185982055595477
0.0181483981716427
0.0176874141950923
0.0172128692084181
0.0167222203684479
0.0162116405275758
0.0156877623325316
0.0151491855778742
0.0145856370159651
0.0139863987684056
0.0133417560071399
0.0126372205459192
0.0118579409589035
0.0109830474955057
0.00996940039242894
0.00867137809661965
0.00771987971706942
0.00809077700720552
0.00899770591775777
0.010272300036743
0.0117711972146791
0.0135565952514228
0.0157402559319999
0.0184195979088106
0.0213738990437704
0.0245825711926561
0.0279836756142084
0.0314826841672914
0.0345947078457237
0.0376402679392486
0.040936331476767
0.0446916076183489
0.0492950478434062
0.0556853824279598
0.0653841667820139
0.0775146592043367
0.0925795090471657
0.112413946234462
0.135710441550062
0.153556590511627
0.145133756549834
0.123716841963178
0.100985867535261
0.0978438970451709
0.138683077103967
0.12352932365742
0.0968731416017733
0.0536348383807053
0.0144317894457136
0.00837198377876176
0.0085729022620919
0.00659989900070929
0.00499228754118327
0.00403037870134552
0.00337799258859445
0.00299348420959991
0.00284406412138911
0.00289587838756233
0.00314948877800447
0.00359130581317406
0.00418944023462892
0.00486799028351203
0.00558298483322647
0.00628274934700567
0.00691589130222247
0.00746586479892897
0.00799432040437445
0.00854730527344747
0.00914956066920421
0.00987066708507007
0.0108292810498565
0.0121211173200932
0.014044600867442
0.0160393680448359
0.0176918530628827
0.019134490046341
0.0204157592389771
0.0215397026161032
0.0225031575179399
0.0233634944284797
0.0241208586372599
0.0247811045923462
0.0253495781102921
0.0258313172923642
0.0262314058431444
0.0265549912489147
0.0268073112896687
0.0269936428160104
0.0271192539387615
0.0271893389383226
0.0272089628957618
0.0271830086549587
0.0271161352291578
0.0270127445407141
0.0268769586342024
0.0267126041827675
0.0265232056600648
0.0263119845969057
0.0260818645668087
0.025835480509832
0.0255751894452139
0.0253030847349914
0.0250209934927598
0.024730526120234
0.0244330806891125
0.0241298439389124
0.0238218232655602
0.0235098518905722
0.0231945993740883
0.0228765869607579
0.0225561971787838
0.0222336813984345
0.0219091656850008
0.0215826546688465
0.0212540335182407
0.0209230670365576
0.020589396729572
0.0202525334780923
0.0199118482407103
0.0195665550571171
0.0192156929307256
0.0188580929209083
0.0184923459388818
0.0181167437038043
0.01772923128057
0.017327995457448
0.0169009168655034
0.016450668457268
0.0159773958758779
0.0154736237343725
0.0149305837041337
0.0143355258769708
0.0136736450593429
0.0129198819214113
0.0120483847560012
0.0109172255831034
0.0100444481509613
0.0102495625351781
0.0109741990209719
0.0121589088423016
0.0137010895866676
0.0156160540516069
0.0179908035684966
0.0208899114584995
0.0242009281268099
0.0278618675686904
0.0318254837766403
0.0360121191420735
0.0401838217245352
0.0445023831807487
0.049253739186754
0.0547049332592883
0.0612192705945869
0.0695190298890382
0.0805400108673348
0.0935871660234612
0.108149430772531
0.123646324611479
0.13817358929578
0.14833577296156
0.148614816497827
0.148343214132841
0.148176557028051
0.148488404887573
0.119638143465709
0.106878407995702
0.0933794160481949
0.0713733363604623
0.0268432660672467
0.0116363850049156
0.0104444757097977
0.00838534987096358
0.00655971281067712
0.0053431563577844
0.00448571256551918
0.00395494366827026
0.00371655638911741
0.00372219805489348
0.00394823855358729
0.00434411004756015
0.00483880994422472
0.00534314049330726
0.00581884764002764
0.00624157882834906
0.00660402581030515
0.00692881540664745
0.00727576927299268
0.00768634366673301
0.00819422243258843
0.00886203219637225
0.0097626855183471
0.0109224607989975
0.0124074817143171
0.0138824024151394
0.0151322659345032
0.016235417487766
0.0172131526729955
0.0180595882980544
0.0188051732407691
0.0194749321273564
0.0200682522588299
0.0205889869154107
0.0210404944672378
0.0214261222133044
0.0217493335775131
0.0220137152914284
0.022222970087967
0.0223808773893218
0.0224912483184614
0.0225578764531515
0.0225844918470891
0.0225747196862
0.0225320456799286
0.0224597885434948
0.0223610795413487
0.0222388481964681
0.0220958138489196
0.0219344824699563
0.0217571473976728
0.0215658939618908
0.0213626069266136
0.0211489758295506
0.0209264983759885
0.0206965031495548
0.0204601611571288
0.0202184894304108
0.0199723631289287
0.0197225287092148
0.0194696092525589
0.0192141139661508
0.0189564463291008
0.0186969103598683
0.01843571564341
0.0181729812480693
0.0179087380265265
0.0176429297994832
0.0173754121130473
0.0171059501646202
0.0168342124716962
0.0165597649057162
0.016282055897731
0.0160004062835034
0.0157139776385421
0.0154217614253208
0.0151224796098479
0.0148152121492798
0.0144938004968676
0.0141517066908985
0.0137929789274589
0.0134147282939637
0.0130114970687387
0.0125756041995806
0.012097032180555
0.0115598869668542
0.0109480554313796
0.0101761379027304
0.00952839377600475
0.00950645505010606
0.0099001000280221
0.0106982351320285
0.0118394591039504
0.0133054287768391
0.0151340171629567
0.017352161931907
0.019914162127183
0.0227672587311563
0.0258758280134181
0.0291875340615463
0.0326222744504517
0.0362417487060144
0.0402111732644312
0.0447254812069652
0.0500198830301305
0.0564518909562046
0.0643184963354976
0.073223960070096
0.0825505008263333
0.0913853442504585
0.098842434051945
0.104865081411588
0.108663483130536
0.112241355121842
0.120455077490724
0.12588437694945
0.0959835943725705
0.0876605746542716
0.0808238543356339
0.0761178024951746
0.04154291779406
0.0154027172428856
0.0105851054724237
0.00855394360332043
0.00690518960030594
0.00568335947840531
0.00478203121947419
0.00420230431369676
0.00391220785794963
0.00386248364857513
0.00401284275705966
0.00429855091248069
0.00464651646176355
0.00499139040603409
0.00531150156494015
0.00559886467394901
0.00586101528236008
0.00612455387420279
0.00643133182116153
0.00681306717624514
0.00730430399136228
0.00795727281417565
0.00882027743983839
0.00989536154647337
0.0111169343224479
0.0122633603911724
0.0132565419755164
0.0141426474236614
0.0149291524025537
0.0156197522581389
0.0162364517958084
0.016791324672233
0.0172843398333567
0.0177183149861442
0.0180957065167142
0.0184190599007174
0.0186910463339236
0.0189144701805754
0.0190922496718057
0.0192273849152452
0.0193229174449648
0.0193818899869279
0.0194073074171325
0.0194021025472595
0.0193691067589482
0.0193110266293757
0.0192304260671329
0.019129713671611
0.0190111345924419
0.0188767668769663
0.0187285208769904
0.0185681426334749
0.0183972195750113
0.0182171788473542
0.018029298834717
0.0178347183635644
0.0176344490462674
0.0174293794609104
0.0172202816789831
0.0170078236909375
0.0167925738260831
0.0165750077821097
0.01635551544962
0.0161344063884142
0.0159119143391431
0.015688200987407
0.0154633584751429
0.0152374113408239
0.0150103164749408
0.0147819630742806
0.0145521688906575
0.0143206782445703
0.0140871519251253
0.0138511641852237
0.0136121795354367
0.0133695543054236
0.0131224510294767
0.0128702824604724
0.0126097927292425
0.0123356946120419
0.0120491208937982
0.0117494621214206
0.0114336299761338
0.0110971185097554
0.0107334669062949
0.0103334793129415
0.00988625218328467
0.00934427454974905
0.00884427215493179
0.00869915823983657
0.00889705467940291
0.00943761342734623
0.0102823283176808
0.0114042498687469
0.0128142711218781
0.0145193735633093
0.0164957095708913
0.0187043144917881
0.021116250497408
0.0236942243649932
0.0264104408791188
0.0292930754396933
0.0324339088051177
0.0359593078956977
0.0400192174591786
0.0447976476003082
0.0503684199285352
0.0565086987016572
0.0627985220921214
0.06858259196658
0.0734372587920514
0.0778778447615908
0.08261493347915
0.0866391484851336
0.0933839442140544
0.0983808275417141
0.0783394358510861
0.0731163054089339
0.0690961453501231
0.0731321884216382
0.0528252525223901
0.0207072784389203
0.0105739903117163
0.00807537909340248
0.00659815681762027
0.00546791721325218
0.00461902513496515
0.00406621093322167
0.00377882274204415
0.00371264669835115
0.00382210466335522
0.00404238239986674
0.00430847266284466
0.00457325004955503
0.0048229522288462
0.00505583630303638
0.00528376497750557
0.00553126300429231
0.00582942587153216
0.00620507702956373
0.00669113257990213
0.0073301406464267
0.00815335580986229
0.00914098746175976
0.0101773747578093
0.0111171604214438
0.0119472272930127
0.0126937575578563
0.0133592952745134
0.0139510692090506
0.0144831008023276
0.0149620039421538
0.0153881619564318
0.0157637827152785
0.0160908304594914
0.0163713939611879
0.0166076851007385
0.0168020472408869
0.0169569314185191
0.0170748688963825
0.0171584345085452
0.0172102119376343
0.0172327594348697
0.017228580129103
0.017200096276713
0.0171496287161453
0.0170793810043429
0.0169914281110391
0.0168877088633591
0.0167700223215832
0.016640026723499
0.0164992438220036
0.0163490581158473
0.0161907197969948
0.0160253547678039
0.0158539692220509
0.015677460903993
0.0154966236046289
0.0153121517666156
0.015124651145662
0.0149346430611485
0.0147425701906001
0.0145488024529039
0.0143536419471633
0.0141573271187814
0.0139600363623594
0.0137618906520381
0.013562955810301
0.0133632432441936
0.013162710867604
0.0129612611489343
0.0127587409377593
0.012554934946835
0.0123495655993326
0.0121422770500438
0.0119326402629186
0.0117200886731786
0.0115042168430444
0.0112831815713338
0.0110534261018134
0.0108146059847197
0.0105667524226619
0.0103081969355008
0.0100363469973798
0.0097471449326859
0.00943537761271495
0.00909379977637191
0.00869756247466429
0.00830693621291297
0.00811743399368409
0.00820189854891417
0.00857810702885084
0.00922314467024507
0.0101108057885753
0.0112386087554007
0.0126027808882053
0.0141868300317293
0.0159614226338126
0.0179022905145779
0.0199808306348813
0.0221886936003539
0.0245436006527289
0.027100247190732
0.029942385376461
0.033171293258619
0.036890765620274
0.0410955125040049
0.0456439428067278
0.050264180144704
0.0545113539840974
0.0581483778235994
0.0616890252168282
0.0662289128185781
0.0704392503291706
0.075661656400622
0.0792441083325273
0.0659387081431295
0.0625022475228201
0.0597807158268963
0.0671669574552774
0.0585823659209968
0.027176630134098
0.0111920512927123
0.00765918944118673
0.00620887601888423
0.00516118533588263
0.00437798158830146
0.00386873181571388
0.00360120407006457
0.00353459404398599
0.00362244190682789
0.00380373756456269
0.00402183055506046
0.00424118456036427
0.00445264143235097
0.00465784246386315
0.00487015518487347
0.00511158796788092
0.00540703768524988
0.00578019179864509
0.00626080923552968
0.00688249840065287
0.00766295393481465
0.00856674177140325
0.00946753027408729
0.0102708528850773
0.0109912563820374
0.0116429244722808
0.0122267770018175
0.0127504497766203
0.0132229002513862
0.0136481867984105
0.0140269137280411
0.0143608928294999
0.0146517815649803
0.0149013751062353
0.0151115883275145
0.0152844642074421
0.0154221482294494
0.0155268636423333
0.0156008775730405
0.0156464697526363
0.0156659014546619
0.0156613887415603
0.0156350791848006
0.0155890332510106
0.0155252098964024
0.0154454562623047
0.0153515006705659
0.0152449491629124
0.0151272848397938
0.0149998713922628
0.0148639492071922
0.0147206428681306
0.0145709678214675
0.0144158336904459
0.0142560542279546
0.0140923519412336
0.0139253620319661
0.0137556414808592
0.0135836732793016
0.0134098715473874
0.0132345867732651
0.0130581103793519
0.0128806786573503
0.0127024762492716
0.0125236388616165
0.0123442557145769
0.012164370819853
0.0119839844643693
0.0118030525329159
0.0116214873513749
0.0114391537844449
0.0112558705231703
0.0110713995580672
0.010885452310263
0.0106976438281446
0.0105076937729263
0.0103145116082639
0.0101157922952986
0.00991067572080325
0.00969936014031997
0.00948101155343327
0.00925425046911947
0.00901667580066751
0.00876555285257869
0.00849623830039907
0.00819767228478845
0.00789142230898119
0.0076967787536998
0.00771558074421871
0.00798278576656291
0.00848841768325637
0.00921046538655371
0.0101401360072593
0.0112677322705678
0.0125793174911307
0.0140517856077475
0.0156643312838024
0.017393980487736
0.0192405748409472
0.0212185955180085
0.023363643627016
0.025733833341705
0.0284014978384835
0.0314294298236127
0.0347821241120168
0.0383588322793243
0.0419787827456755
0.045332213904127
0.0482666228380289
0.0512048863051269
0.0552251005656993
0.0593327653525366
0.0637626129565967
0.0664063331114469
0.0570025256922136
0.0545897162597049
0.0525921674425182
0.0605677424031391
0.0609794321452862
0.0338635618499498
0.0126375146167399
0.00750361253317093
0.00591787166468219
0.00491490613109721
0.0041818757730525
0.003708358124008
0.0034584763667821
0.00339249006976967
0.00346434686425425
0.00361752724806676
0.00380241620288056
0.00399110062383961
0.00417752984109812
0.00436541086492255
0.00456843182201244
0.00480632690685669
0.00510003021331773
0.0054706225485797
0.00594405210817775
0.00654597985505326
0.00728350108469164
0.00811225896111662
0.00891158664899413
0.00962021771806427
0.0102630814359528
0.0108471415833735
0.0113729372539166
0.0118472106287865
0.0122758849071657
0.0126617043545817
0.0130053758577433
0.0133084372584945
0.0135723379954938
0.0137986704486974
0.0139891447987558
0.0141455966594445
0.0142699607317374
0.0143642475665197
0.0144305115784398
0.0144708219206996
0.0144872335772342
0.0144817625307203
0.0144563641688035
0.014412915994736
0.0143532042737947
0.0142789144709496
0.0141916247074525
0.0140928024902656
0.0139838053340466
0.013865880208823
0.0137401631048635
0.0136076859812452
0.0134693819510352
0.0133260882831292
0.013178555185155
0.0130274504757595
0.0128733633607427
0.0127168122946223
0.0125582492263188
0.0123980643309379
0.0122365908149212
0.0120741092247093
0.0119108512305374
0.0117470030278776
0.0115827081234638
0.0114180699083203
0.011253153335054
0.0110879867793145
0.0109225622985438
0.0107568371416471
0.0105907317805907
0.0104241320871499
0.0102568828721961
0.0100887943754717
0.00991961098412769
0.00974914834467315
0.00957675383389592
0.00940093931004371
0.00922084453866304
0.00903665212592369
0.0088480554431168
0.0086544833741387
0.00845470962813862
0.00824762918219848
0.00803051089930046
0.00780077992856479
0.00756054516904844
0.00737884392287999
0.00736090121823846
0.00755374254923182
0.00795831755475973
0.00855805148348745
0.00934168484449796
0.0102963845077291
0.0114091001978431
0.0126607788479317
0.0140332351258097
0.0155074462932451
0.0170869340762574
0.0187852003385794
0.0206275397639095
0.0226562383781661
0.024925349601709
0.027474629414563
0.0302573032663339
0.0331957142695989
0.0361651696747088
0.038941609223309
0.0414140913600197
0.0439149898368482
0.0473894485428856
0.051202730116329
0.0551596609281055
0.0573177941500753
0.0502755292874278
0.0484904602642692
0.0469939373665909
0.0542587168009266
0.0609889392096281
0.0401300871889584
0.0150260405706142
0.0076554372807367
0.00575443509545198
0.00475091737426848
0.00404782186445477
0.00359761673428089
0.00335865745428451
0.00329044879585213
0.00334750915140427
0.00347755698868088
0.00363667083401294
0.00380216150970792
0.00397016315156741
0.00414563031920078
0.0043419884535409
0.00457700875041501
0.00486880483269474
0.00523603492454046
0.00570071617943162
0.00628169673212982
0.00697816042798975
0.00774198561100527
0.00846407332502788
0.0091044765926042
0.00969052172268713
0.0102248432412315
0.0107078297691196
0.0111451171749933
0.0115407411863714
0.0118967128503282
0.012213775208804
0.0124932683211011
0.0127364928673989
0.0129448952039695
0.0131200393732303
0.0132636134176721
0.0133774026484482
0.0134632670851306
0.0135231106857867
0.0135588535001392
0.0135724041625066
0.0135656362959849
0.0135403680555052
0.0134983457406702
0.0134412311984739
0.0133705928122802
0.0132878993319593
0.0131945171455126
0.013091710918977
0.0129806405720687
0.0128623646749397
0.0127378454906534
0.0126079536479431
0.0124734711827032
0.0123350993779272
0.0121934634622778
0.0120491164326433
0.0119025460143778
0.0117541789322029
0.0116043854225545
0.0114534837524345
0.0113017443549079
0.0111493935196729
0.0109966167514076
0.0108435616252307
0.0106903404612726
0.0105370323121686
0.0103836851080792
0.0102303166258924
0.0100769164879713
0.00992344565326144
0.00976983923501834
0.00961600310153753
0.00946182057020177
0.00930713213756615
0.00915183093068832
0.00899553864219153
0.00883731252428764
0.00867646300686905
0.0085131572683793
0.00834743030316791
0.00817926823156101
0.00800829603977559
0.00783452315558491
0.00765666618074146
0.00747734277945139
0.00728920929187161
0.00712812242068343
0.00709150305292403
0.00723300267897903
0.00756236826094737
0.008068685296969
0.00874041746020437
0.00956333234396507
0.0105247324010265
0.0116082767525933
0.0127977956702728
0.0140771938370485
0.0154516492970812
0.0169343466694035
0.0185447641235013
0.0203151064127857
0.022287289907971
0.0244871804152507
0.0268650000729801
0.0293578619569741
0.0318766266490853
0.0342524295216296
0.036394860437385
0.038560507599395
0.0415435994653256
0.0449849076820815
0.0485720676978469
0.0504851398548694
0.0449956951072744
0.0436303126159857
0.0425351897063847
0.048598654330067
0.0593701848245606
0.0453286840829248
0.0184237150087995
0.00815345209291377
0.005719827416228
0.0046630472485006
0.0039696551765739
0.00353073597771247
0.00329573006335536
0.00322192528398773
0.00326411361118944
0.00337369184079829
0.0035113030687591
0.00365794249125719
0.00381128345229289
0.00397698094355629
0.00416790130656941
0.00440012078212324
0.00468955860532086
0.0050525619886957
0.00550738718172447
0.00606721815511179
0.00672562078680167
0.00743415348185598
0.00809664044588947
0.00868657489159199
0.00923000517697218
0.00972696005460443
0.0101776735470339
0.0105867556360908
0.0109570268650794
0.0112900568225687
0.011586588296172
0.011847814049463
0.0120749248677698
0.0122692597194189
0.0124322767946656
0.0125655581261311
0.0126707825144291
0.0127497030492972
0.0128041170093215
0.0128358386764633
0.0128466726767547
0.0128383911353707
0.0128127139591267
0.0127712930476273
0.0127157002356349
0.0126474186940289
0.0125678370557346
0.0124782478028389
0.0123798453816702
0.0122737252107112
0.0121608876027665
0.0120422418888795
0.0119186108394419
0.0117907338923799
0.0116592742759213
0.0115248237399047
0.0113879065155422
0.0112489856328692
0.0111084672276252
0.0109667049383654
0.01082400424571
0.0106806264990642
0.0105367925579566
0.0103926861374802
0.0102484567350985
0.0101042223987137
0.00996007196577326
0.00981606743856977
0.00967224550853433
0.00952861994309296
0.00938518220096302
0.00924190476280411
0.00909874006819596
0.00895562742366567
0.00881248098833796
0.00866925801157841
0.0085257628504648
0.00838142777927846
0.00823577222724922
0.00808898239969801
0.00794132541031482
0.0077931810267389
0.00764479960628809
0.00749697109748389
0.00734952939140035
0.00720818729101776
0.00706145031658159
0.00692347018532331
0.00687962962350011
0.00698576761195941
0.00725825183685
0.00769150595376099
0.00827497137703835
0.00899414768055263
0.0098365982752987
0.0107878696902141
0.0118333731284038
0.0129592670598674
0.0141714117692992
0.0154828121869258
0.0169095368685483
0.018477193133722
0.0202193208429229
0.0221530031217872
0.0242294016293012
0.0263961976548021
0.0285873943448996
0.0306699908617106
0.0325625983844888
0.0344604145853824
0.037021822313724
0.0400780867177391
0.04332904157776
0.045100172818837
0.040707330064179
0.0396443653917214
0.0388893224538809
0.0436723897398802
0.0567014474688517
0.0491328198850534
0.0227119240848084
0.00905994364243615
0.0058198627924515
0.00464438779317878
0.00393969445613323
0.00350082615272538
0.00326323389324335
0.00318056826366553
0.0032073525532172
0.00329798132260335
0.00341673003135675
0.0035472295395984
0.00368821234297179
0.00384565493319239
0.00403171313264589
0.00426097814794002
0.00454754717255669
0.00490557474351473
0.0053498755830438
0.00588904750106247
0.00651288710578103
0.00717473963342893
0.00779079438499155
0.00834277001517781
0.00885381698672815
0.00932238364002946
0.009748503393115
0.0101359036479882
0.0104865958258485
0.010801862563539
0.0110824266973503
0.0113293686880152
0.011543796720201
0.0117269704532268
0.011880271778595
0.0120052074656023
0.0121033816216572
0.0121764728365951
0.0122262043024441
0.0122543168274907
0.0122625426022645
0.0122525827464646
0.0122260880339302
0.0121846434760683
0.0121297566433603
0.0120628493763788
0.0119852524020133
0.0118982039945754
0.0118028461614465
0.0117002266586571
0.0115913019849852
0.011476941282418
0.0113579306346487
0.0112349765458572
0.0111087125434247
0.0109797039615707
0.010848452078799
0.010715399993924
0.0105809369833548
0.0104454028531631
0.0103090921779017
0.0101722582693888
0.0100351168036223
0.00989784917836521
0.00976060551535485
0.00962350752020712
0.00948665093350678
0.00935010810378043
0.00921392995683748
0.00907814870724917
0.00894277935593616
0.0088078234577469
0.00867326986551442
0.00853910189972583
0.00840529150277517
0.00827184968635373
0.00813870875920708
0.00800556555551498
0.00787213954795828
0.0077386643594043
0.00760557422151306
0.00747353228812864
0.00734325155566006
0.00721607476113144
0.0070927053301207
0.00698059555079135
0.00686692251987756
0.00675193901332824
0.00670812173042961
0.00679029976247231
0.00701940972403756
0.00739458673356924
0.00790692969289318
0.00854241792256624
0.0092889542404541
0.0101334649061491
0.011062629493414
0.0120643934382023
0.0131448136318189
0.0143166926512137
0.0155940353317757
0.0169980350971157
0.0185562774617212
0.0202801498919531
0.0221237659962327
0.0240430657709052
0.0259873001987976
0.0278465779004091
0.0295417137489457
0.0312182796667981
0.0334219000554736
0.0361112393316306
0.0390436787429709
0.0407092427390106
0.0371304866583713
0.036297435690092
0.0358303562261922
0.0394554246007453
0.0533774449308431
0.0514767484819645
0.0275664688520435
0.010465704628731
0.00607301794365493
0.00469304624286609
0.00395303502758926
0.00350309023195181
0.00325659569591953
0.00316186109536317
0.00317241383387746
0.00324489724039309
0.00334642688591169
0.00346251087464172
0.00359256709470387
0.00374262181027824
0.00392404343917185
0.00415009837734998
0.00443330507383179
0.0047857680083611
0.0052192468237767
0.0057387152997804
0.00633162858092313
0.00695429201771491
0.00753397716013615
0.00805717487552687
0.00854351677916223
0.00899047704151629
0.00939784670051046
0.0097686074520923
0.01010421190496
0.0104057406219045
0.0106738859564258
0.0109096411526812
0.0111140520462986
0.0112883205121598
0.011433775013883
0.0115518710284575
0.0116441628238094
0.0117122798487011
0.0117578966887409
0.0117827059154619
0.0117883919419348
0.0117766086849333
0.0117489605037142
0.0117069869823249
0.011652151510442
0.0115858332274835
0.0115093225799728
0.0114238181310422
0.0113304242726656
0.0112301539201742
0.0111239310764818
0.0110125947018358
0.0108969029912096
0.0107775371327837
0.0106551075559812
0.010530158793872
0.0104031738180904
0.0102745796297546
0.0101447516851702
0.0100140182536876
0.00988266461664034
0.00975093701958324
0.00961904631340512
0.00948717134523881
0.00935546204131059
0.00922404236007632
0.00909301292798781
0.00896245378889744
0.00883242673869491
0.00870297831797404
0.00857414201401618
0.00844594241349128
0.00831839736193566
0.00819152543827089
0.00806534471848074
0.00793991160790774
0.00781525185149165
0.00769125311016167
0.00756781044247441
0.00744522137659788
0.00732404710666257
0.00720515773128777
0.0070896088269518
0.00697913454343375
0.0068751141580117
0.00678585863665957
0.00669869692390581
0.00660531879539818
0.00656600546410818
0.00663248118143233
0.00682844760354272
0.00715696956349638
0.00761110917851719
0.00817781065415158
0.00884544860027436
0.00960201733063918
0.0104352400146224
0.0113345136705936
0.0123058502166357
0.0133617939147807
0.0145150667382267
0.015783856818321
0.0171914243132429
0.0187454650129071
0.020404130084683
0.0221301972070316
0.0238828405821772
0.0255665236631485
0.0271000159425054
0.0285885588888708
0.0304878985082812
0.0328411385096055
0.0354722212603653
0.0370405713818853
0.0340860368307139
0.0334338296840041
0.0332041489057854
0.0358806640354498
0.0496652465874487
0.0524581443814573
0.032495884147331
0.0124886077949616
0.00651368989537016
0.00481337116765992
0.00400803346989595
0.00353502078336971
0.00327313512574284
0.00316297840401783
0.0031561573285148
0.00321075159652034
0.00329600923165426
0.00339873110630265
0.00351871583333231
0.0036618359654834
0.00383863353046441
0.00406117240680986
0.00434056794259372
0.00468703899040086
0.0051096947834592
0.00561071343483179
0.00617627448290921
0.00676620153422066
0.00731737668827591
0.00781877623622615
0.00828637827714501
0.00871703468664769
0.0091102640152105
0.00946841409485078
0.00979253450231654
0.0100835512065674
0.0103421204473333
0.0105691667119548
0.0107656892153856
0.0109328493161979
0.0110719405948789
0.0111843868070111
0.0112717126984341
0.01133551930724
0.0113774534155422
0.0113991799306486
0.0114023555532474
0.0113886063336253
0.0113595086434866
0.0113165740202816
0.0112612379180872
0.0111948520488007
0.0111186802062053
0.0110338934354759
0.0109415704279632
0.0108426995202503
0.0107381813514025
0.0106288327809777
0.0105153912277429
0.0103985187234534
0.0102788079438337
0.0101567871799713
0.0100329248831358
0.00990763509291316
0.00978128195205609
0.00965418410959703
0.00952661892770356
0.00939882645201967
0.00927101309135124
0.00914335506023695
0.00901600154840953
0.00888907777011465
0.00876268776559444
0.00863691731240129
0.00851183656646957
0.00838750330411445
0.00826396569531314
0.00814126680174894
0.00801944785761536
0.00789855607547417
0.00777864685954468
0.00765981508145023
0.00754215704645221