/*--------------------------------*- C++ -*----------------------------------*\
  =========                 |
  \\      /  F ield         | OpenFOAM: The Open Source CFD Toolbox
   \\    /   O peration     | Website:  https://openfoam.org
    \\  /    A nd           | Version:  7
     \\/     M anipulation  |
\*---------------------------------------------------------------------------*/
FoamFile
{
    version     2.0;
    format      ascii;
    class       volScalarField;
    location    "10000";
    object      omega;
}
// * * * * * * * * * * * * * * * * * * * * * * * * * * * * * * * * * * * * * //

dimensions      [0 0 -1 0 0 0 0];

internalField   nonuniform List<scalar> 
15600
(
1974.60613735576
1972.648325243
1984.42791022013
2055.78059759582
2222.67690004102
2356.686868098
2378.42128442444
2300.00018532342
2153.97031116953
1966.45861756929
1762.78479607635
1583.64547894744
1435.67966376577
1312.2349065017
1208.29531934702
1120.03744959636
1041.43040276847
963.351277377799
885.918292649371
810.58135114486
738.629427726828
671.777660481123
614.580438156229
568.667823075621
533.493089366932
508.868650769501
494.93483283514
492.061840314983
493.651539705996
493.651534338166
493.651534338173
493.651534338186
493.651534338214
493.651534338152
493.651534338164
493.651534338193
493.651534338173
493.651534338179
493.651534338187
493.651534338166
493.651534338199
493.651534338138
493.651534338171
493.651534338152
493.651534338165
493.651534338172
493.651534338187
493.651534338193
493.6515343382
493.651534338166
493.651534338172
493.651534338165
493.6515343382
493.651534338165
493.651534338146
493.651534338186
493.65153433818
493.651534338194
493.651534338178
493.651534338193
493.6515343382
493.651534338185
493.651534338193
493.651534338201
493.65153433813
493.651534338152
493.651534338177
493.651534338139
493.651534338172
493.65153433818
493.651534338191
493.651534338182
493.65153433818
493.651534338178
493.651534338194
493.651534338178
493.651534338152
493.651534338152
493.651534338159
493.651534338193
493.651534338166
493.651534338166
493.651534338171
493.651534338213
493.651534338157
493.651534338194
493.65153433817
493.651534338157
493.651534338187
493.651534338165
493.651534338165
493.651539706002
492.061840314982
494.934832835202
508.868650769232
533.493089366357
568.667823075228
614.580438156834
671.777660481449
738.629427726959
810.581351143299
885.918292648864
963.351277377646
1041.43040276902
1120.03744959597
1208.2953193011
1312.23490651725
1435.67966381516
1583.6454790092
1762.78479592733
1966.45861764716
2153.97031128258
2300.00018510395
2378.42128451691
2356.68686814436
2222.67690004416
2055.78059756207
1984.42791022399
1972.64832524326
1974.60613735531
419.826851650377
420.364170326362
454.464207058649
460.293182518886
460.342811767857
465.808481120468
468.656126481124
454.197929241445
426.454446583036
389.854747246968
349.960112793935
314.8632935433
285.863743700467
261.927784986002
242.010323577402
225.204449066017
210.028146107802
194.83907242334
179.581965182836
164.442525383857
149.766720444503
136.291230396876
124.79600371275
115.414519305359
108.245633640761
103.432198823097
101.662520823159
105.149342107507
106.235772837931
104.067983253593
102.586213079993
101.65774804654
100.952236042534
100.418869163756
100.036184495353
99.7709122000528
99.5181143506858
99.279144069581
99.0537861478696
98.8422601631302
98.6448895139714
98.4619773387498
98.2937148332335
98.1401920697494
98.0013796145436
97.8771533740522
97.7672983078603
97.6715275489936
97.5894906312149
97.5207864391728
97.4649698359676
97.4215612360096
97.390051417045
97.3699086356342
97.3605816663021
97.361506749572
97.372103298411
97.3917885408855
97.4199877954075
97.4560898274117
97.4995304831667
97.5497301199256
97.6060654432068
97.6679659712964
97.7348661522833
97.8061978367325
97.8813998385461
97.959917396136
98.041202068579
98.1247124630061
98.209911892841
98.2962715018961
98.3832639644213
98.4703732058177
98.5570779737278
98.6428802321072
98.7272603265128
98.8097574394506
98.8898445403496
98.9671415154351
99.0408141373452
99.1240129292425
99.2407377253117
99.3794970002067
99.5258199621881
99.68909110728
99.8673159530231
100.085709652791
100.335042130376
100.674079496154
101.138795664981
101.95064971861
100.739886208648
98.2477232645309
100.49325877759
104.998859460242
111.729903598183
120.587690228428
131.639595459174
144.581195299284
158.810951489995
173.885727039011
189.620834025977
205.798349848658
222.672782926366
241.414943334729
263.181757652476
288.843265641806
319.313875104838
355.61561248518
396.495709137351
435.965461380035
468.393703652237
488.03134156264
490.768995818899
479.56241419952
488.216338261383
493.679425699992
478.564234933439
436.855915972084
182.862526478829
175.153028326696
180.274646129606
184.272594255097
169.769087747936
166.244160833255
163.385918168903
159.273128576053
150.558865285493
138.073018101932
124.212971551154
111.848186395095
101.659333777165
93.2393660922489
86.2023377049249
80.2020472958215
74.7262487424005
69.2042236986438
63.6647823004283
58.2618143491256
53.1834050388175
48.6460145005852
44.9123426800555
42.0644809815864
40.0953288314509
39.0216196830885
38.8637728251129
39.2315133298771
39.2341843811481
39.0412541345934
39.0255055312346
39.0877449890849
39.1292885292405
39.116167965324
39.039444960447
38.9941235060885
38.9525507264649
38.913834243227
38.8767216030733
38.8406561413285
38.8053977665493
38.7708991249657
38.7372000411222
38.7043990923088
38.6726161592991
38.6419850109374
38.6126391761277
38.5847092046232
38.5583169791988
38.5335743123441
38.5105800097225
38.4894196243264
38.4701638020068
38.4528685642928
38.4375742950133
38.4243067572224
38.4130737740842
38.4038719545957
38.3966969071394
38.3915032356653
38.388248225618
38.3868843274753
38.3873295028683
38.3895088991709
38.3933385875854
38.3987220598567
38.4055545921659
38.4137238858976
38.4231107997785
38.4335907659711
38.4450337584739
38.4573074079774
38.4702754589097
38.4838051329673
38.4977611687729
38.5120245360519
38.5264729944176
38.5410304347433
38.5556072269371
38.5702297127035
38.5847037659976
38.6026233718643
38.5969590684226
38.5712064401841
38.5374956395402
38.4976885923303
38.4505978741133
38.3961517910887
38.3327705878172
38.2478577012325
38.1933988471476
38.165088492786
37.9439990580538
37.6198489853818
37.9639993581453
39.2275166276134
41.3902725947504
44.3232588823931
47.9936649586357
52.2896858374048
57.1194460938307
62.3132503257156
67.8185996910839
73.5944084495876
79.8769784901583
86.8740271813078
94.8927735440673
104.23870886385
115.166087108119
127.761062951712
141.259776576477
154.400730396783
165.144220056833
170.868381168792
170.775180391698
168.842675016238
174.650576302384
188.260675080533
200.138663741965
196.361190721028
106.520935976198
99.8559420499348
103.701035997045
116.217342695311
104.59232384541
83.2269899653819
75.6407908002254
73.8684395067826
70.4966082999371
65.0139637109365
58.8097641821988
53.2905302849447
48.7864803878916
45.1249636676904
42.0543288753613
39.3497046628175
36.7743496160581
34.1662183641237
31.5843277873654
29.1336407227469
26.9191590114569
25.0285911881297
23.5381688370397
22.4748821894322
21.849002754536
21.6663084329608
21.8601816435221
22.1461866006424
22.1752755961942
22.1560059852122
22.225424348488
22.314951838192
22.3834662611518
22.4062716840721
22.4165340205176
22.4352255743958
22.452089511746
22.4666704778891
22.4783792760119
22.4870657094817
22.4927551051926
22.4955854386208
22.4957409623299
22.49343593443
22.4888923063068
22.4823351244007
22.4739844616937
22.4640537336597
22.4527466103052
22.4402562064921
22.4267635752113
22.412437630707
22.3974343384499
22.3818969098787
22.3659553490883
22.3497269502502
22.3333161132462
22.3168165138063
22.3003150148869
22.2838733594875
22.2675489891225
22.2513941651854
22.2354408678101
22.2197193948273
22.2042522226561
22.1890524576135
22.174126060489
22.1594726729304
22.1450864326811
22.1309572246157
22.1170713011487
22.1034136051182
22.0899679758605
22.0767219959441
22.0636656355165
22.0508024777175
22.0381429295257
22.0257319490922
22.0136248600731
22.0019588754345
21.9907837607205
21.981627972214
21.9673186945251
21.937767519081
21.9030883532038
21.8664271447529
21.8282306701612
21.7894782233547
21.7507382111302
21.7100546513034
21.6862958713187
21.7067171652662
21.6229165691763
21.3319850889351
21.2637016118881
21.6938304142355
22.6268341888206
23.967556856062
25.664530933298
27.6513935225803
29.9073590692908
32.3558378817674
34.967423974514
37.7296496456922
40.7840900970835
44.1876017108278
48.032003477723
52.4331529892827
57.4749713426946
63.0914691479928
68.788577818692
74.1759466297231
78.437999222561
80.3969317127654
79.8877412147404
79.2176592974577
83.6562892178955
93.3422922931196
107.51335317132
112.439509410534
70.326047863696
66.413632629564
69.7735348059342
86.337988239963
84.9406196055931
56.161656399208
43.3496781831849
41.2314645700046
39.4408977395783
36.5408980070719
33.2862100154604
30.4661261757375
28.2259170907803
26.4638688569885
24.9836640833437
23.6273243344707
22.2802429329601
20.9081751643963
19.5549300755038
18.2839510339992
17.1587888238228
16.2267896641508
15.5175417221453
15.050654184456
14.8464938613662
14.9075595932819
15.1698763459813
15.4428706453399
15.4635575445884
15.4214010019529
15.4579104777084
15.5142499101296
15.5599234786891
15.587598611655
15.6125215898422
15.6398762104833
15.6647281569403
15.6867365652131
15.7055438366691
15.7210969332821
15.7334564054449
15.7427597211241
15.7491746413314
15.7528885390407
15.7540932976214
15.7529820331372
15.7497437774468
15.7445622406996
15.7376138255826
15.7290670297124
15.7190815019206
15.7078079742033
15.6953877606486
15.6819528514385
15.6676256402013
15.6525193930326
15.6367389164408
15.6203799102512
15.6035321374193
15.5862696557734
15.5686620066735
15.5507744927538
15.5326599286029
15.5143683642115
15.4959444204109
15.4774265567805
15.4588484183972
15.4402396373989
15.4216266341645
15.4030337296788
15.3844839936801
15.3660011464624
15.3476104618052
15.3293424072181
15.3112332063841
15.2933325984649
15.2757024220304
15.25843449616
15.2416416756277
15.225502373909
15.2101718595481
15.1965281481124
15.1823222458398
15.1621069953761
15.1391849433654
15.1169113951581
15.0968440268977
15.0811035577792
15.0719123667856
15.0726333300224
15.0953493933226
15.1804920781089
15.1648766665583
14.8831849404676
14.7114192806044
14.8511792823182
15.324822526646
16.0691059650437
17.0353061883188
18.1744478742805
19.4774403156484
20.9035208676935
22.432341078762
24.0580223398411
25.8683283714948
27.8877822383249
30.144958581952
32.6861488852786
35.5406117853187
38.6315543512026
41.6365236672101
44.3814531200399
46.4949522711696
47.4050147013549
47.0740662100599
46.8060270373032
49.8397690045716
56.031655264527
66.0858866806556
71.7925578044092
50.1526120405016
48.1941332677461
50.7465119411629
67.0978174210047
73.6076492105475
47.6397129403016
30.2777066037807
26.9619892770094
25.5504701614857
23.694792920433
21.7176426242549
20.078226705385
18.8334070122416
17.899833313054
17.1162166753091
16.3642665413236
15.58209359014
14.7714107155326
13.9649933697673
13.2080408573472
12.5469299819136
12.0137284256751
11.6246796332096
11.3970086277457
11.3499124127907
11.4807258246285
11.7318076144165
11.9557200020323
11.9540734749198
11.8976261292381
11.9117743426347
11.9456148109354
11.9759395669059
12.000296934529
12.0244912687682
12.0493711601046
12.072077159706
12.0922802152569
12.1097025978491
12.124299400134
12.1361126779525
12.1452459405174
12.1518280568183
12.1560047530178
12.1579269704611
12.1577478793727
12.1556187107232
12.1516875006527
12.1460974753176
12.1389864096343
12.1304858488475
12.1207209474104
12.1098100544916
12.0978647028688
12.0849893953677
12.0712823427239
12.056835301563
12.0417329213815
12.0260553387721
12.0098721380076
11.9932490480989
11.9762484860334
11.9589247035912
11.9413294483104
11.9235107533374
11.9055126229895
11.8873759648352
11.8691393347716
11.8508397093209
11.8325135012949
11.8141974923536
11.7959304906658
11.7777545353375
11.759717888374
11.741876468351
11.7242998168483
11.7070721756861
11.6903053910742
11.6741371308646
11.6587615702463
11.6443825020379
11.6316144014688
11.619787678859
11.606308368998
11.5921694136796
11.5800244810208
11.5717713770238
11.5699232710077
11.5774393382246
11.599363236783
11.6458073593413
11.7587016487863
11.7898525281302
11.558233649736
11.3658216806784
11.3817625781911
11.6391779612745
12.0977837889137
12.7161530126534
13.4551007712232
14.3075989299555
15.2490890555612
16.2646211250661
17.350852747384
18.5667855698804
19.9275775610439
21.440879417308
23.1251598758969
24.9892640144724
26.9663783195093
28.8325859165017
30.4871363648418
31.7368201589172
32.2707092220871
32.0828030659026
31.9788733754633
34.1010186162798
38.369898109456
45.1970212341061
49.8716235747353
37.8874608234832
37.0141832183055
38.8846304350258
53.1623214844766
64.0251921403802
44.9786854402417
24.7969488071183
19.9936290365967
18.5638636951019
17.1806626574674
15.8124134248825
14.7326202495378
13.9549063483077
13.4022918675984
12.938756880094
12.471193047153
11.9625997242066
11.4255021567536
10.8868586544404
10.3825567567002
9.94902750108182
9.6097185837356
9.37527054072697
9.26012645495976
9.27897941024831
9.42448083535762
9.64405482765268
9.81751850578185
9.79962393555095
9.74053531011727
9.74285965857658
9.76347468806265
9.78453829805658
9.80464722826618
9.82538330488574
9.84624007955975
9.86532894603489
9.88232079478547
9.89697453936841
9.90923786017788
9.91913174183554
9.92673035430069
9.93213149857413
9.93544906132945
9.93680331398427
9.9363179185467
9.93411630885972
9.93032031070659
9.92504865343108
9.9184162388504
9.91053340928635
9.90150569745513
9.89143344123217
9.88041170374321
9.86853017593065
9.85587392470198
9.84252245711879
9.82854990889455
9.81402676514427
9.79901594698509
9.78357711850355
9.76776726820751
9.75163773852471
9.73523776951957
9.71861398875238
9.70181034322581
9.68486881705253
9.66783012401889
9.65073445032932
9.63362239917575
9.61653594814284
9.59951994461793
9.58262343772769
9.56590226880532
9.5494209126613
9.53325738640626
9.51750555166325
9.50228517833965
9.48774378420607
9.47407941788023
9.46151698985204
9.4505419801553
9.44108284251137
9.43199775707029
9.42358581677331
9.41789608691285
9.41682260144931
9.42292564184221
9.43940993070803
9.47168676393101
9.52876737133265
9.64983428109458
9.71049240322521
9.53455931096506
9.35149985598366
9.31002228799081
9.45053570536172
9.7493074124245
10.1726566133159
10.6883049744579
11.2895166178152
11.9600556683395
12.6885628409758
13.4730416038387
14.3557202121745
15.3480742052663
16.4502871579283
17.6686168791613
19.0032648663377
20.3983573590118
21.6894821515723
22.8080019928996
23.6422885713309
24.007202871422
23.9060995143868
23.879057441379
25.420062779494
28.5607252671102
33.4388753128906
37.066327932521
29.9073249101795
29.5976968446074
31.0058308449192
42.6703782582884
56.4145345992797
43.9420876690319
22.7581125290544
16.2970164889723
14.6467969949691
13.4885795074458
12.4398044077641
11.6502364253759
11.1099997500736
10.7456622582502
10.4400166477329
10.1170679579837
9.75298345061721
9.36339371631459
8.97161338963316
8.60746563266813
8.30035508265081
8.06800721807373
7.9179498059353
7.86170516424509
7.90928328410874
8.0499727532868
8.23590244240069
8.36800825510404
8.34111452333058
8.28491280657016
8.28134378338923
8.29424114406767
8.30971653109882
8.32627289008544
8.34366273769006
8.36096025082151
8.37679771085488
8.39085227391993
8.40290698393687
8.41290361943781
8.42084891690076
8.42679741819437
8.43082644169941
8.43302903081009
8.43350548935938
8.43236030988973
8.4296988544805
8.42562584710754
8.42024392710705
8.41365283661849
8.4059487008341
8.39722371294568
8.38756576609828
8.37705833702632
8.36578062698981
8.35380776115644
8.34121005914038
8.32805353449892
8.31440100687102
8.30030953131367
8.28583330768411
8.27102423930478
8.25593009568281
8.24059685952338
8.22506858671002
8.20938749673876
8.19359457450126
8.17773022089325
8.16183496898236
8.14595037408834
8.13011996921203
8.1143906423528
8.09881401216609
8.08344874284657
8.06836256664027
8.05363650340714
8.03936776847263
8.02567805612716
8.01271727514371
8.00068143827006
7.98980246479429
7.98049280827976
7.9729295365096
7.96669607819763
7.96199708000977
7.96040426731177
7.96370657278823
7.97437243338049
7.99561527020953
8.03273342555407
8.09389689359824
8.21420832592407
8.29207994727297
8.16495000990028
8.00238148891448
7.93484034413206
8.00701895425878
8.20732375395229
8.50922955607079
8.88593156395804
9.33079699024488
9.83230035547817
10.3815902791775
10.9775046980812
11.6516460568216
12.4135288610677
13.2606940251566
14.1937218255282
15.208889228503
16.2593889762059
17.2194015076846
18.0374813564537
18.6438198314137
18.920273245344
18.8725860836435
18.8848698432295
20.0432539587069
22.449205552844
26.121615143878
28.9760586825856
24.4074780898478
24.3876705460208
25.5087002362401
34.6406355410321
49.7726647246701
43.2689567399635
22.5798573454292
14.3004510550545
12.2669480502494
11.1984923450687
10.3277538602898
9.69987698835167
9.28907406498482
9.02426375225861
8.80235330358549
8.55932297548419
8.2787669940722
7.97665887852331
7.6736475450905
7.39507773902221
7.16507714400058
6.99735781162658
6.89739174374952
6.87397754602028
6.93313929308264
7.06209690827471
7.21767149018653
7.31816255294296
7.28750862833946
7.23654157505181
7.23042445036833
7.23895726143451
7.25103549417253
7.26496477002022
7.27970171026484
7.29423025411014
7.30749452314748
7.31918566003875
7.32910753527401
7.33720075926797
7.34346500697367
7.34794371618124
7.3507024169736
7.35182198542477
7.3513910411384
7.34950279651909
7.34625192056781
7.3417329252322
7.33603873100726
7.32925979223562
7.32148338235108
7.31279323753841
7.30326920637477
7.29298716562231
7.28201926340956
7.27043361196993
7.25829411430131
7.2456609112034
7.23259115007688
7.2191372991137
7.20534919537639
7.19127457031712
7.1769579339176
7.16244221064289
7.14776880942907
7.13297782206563
7.1181085619459
7.10320018312743
7.08829237375365
7.07342620315838
7.0586450629417
7.04399595304672
7.02953085851778
7.01530886089008
7.00139822382057
6.98788012850747
6.97485186138453
6.96243389830048
6.95077462368462
6.94006500015155
6.93053637069144
6.92255460322861
6.91640321360349
6.91204508937041
6.90973846756008
6.9107400669678
6.91669886562127
6.92993701286004
6.9535624497669
6.99258142847669
7.05445155428792
7.169994051024
7.25690492588219
7.16934436890392
7.03051334143958
6.95325497202855
6.98389761272937
7.11976110727906
7.34062520414875
7.62428111778742
7.96434602033757
8.35218593575639
8.78076754381076
9.24948773576719
9.78277867227851
10.3888298372265
11.0644138354018
11.8074411154553
12.6124107090023
13.4397341934764
14.1902317446927
14.8231894539341
15.2921732513953
15.5174058574285
15.5041470715889
15.537191421753
16.4323936845745
18.3263961788696
21.1978583827012
23.5024107664232
20.4308654012874
20.560450997902
21.5075415513175
28.4700050420329
43.7848547332889
42.2742352258806
23.4977283030385
13.3366668338336
10.7567730555584
9.68362144983565
8.91142285930738
8.37675089030313
8.03923975170465
7.82920341733044
7.65415295858663
7.45848850131027
7.23001711194103
6.9839346928153
6.73874637347547
6.51628913572337
6.33662185377075
6.21054244345497
6.14201403587399
6.13744669440877
6.1997196199051
6.31502312533203
6.44481773561255
6.52178974746152
6.49078241398932
6.44594646161851
6.43925789922672
6.44551525204111
6.45561515601905
6.46774640017499
6.48055012369914
6.49304179542273
6.50437035289697
6.51424693917829
6.52249588635271
6.52906131274291
6.53394176258027
6.53717620203367
6.53882495729449
6.53896319310243
6.53767395131184
6.53504493874982
6.53116551466532
6.52612499647875
6.52001122904369
6.51290966717509
6.5049026680805
6.49606911366198
6.48648408125023
6.47621889038756
6.46534110306897
6.45391425586835
6.44199797139277
6.42964833087654
6.41691845068865
6.40385739970284
6.39051170086446
6.37692582894649
6.36314157309407
6.34919923763833
6.33513783895007
6.32099538068607
6.30680935959629
6.29261736185889
6.27845773758248
6.26437041334696
6.25039781346048
6.23658607257543
6.22298639135513
6.20965698932581
6.19666518946035
6.18409079311614
6.17202936752673
6.16059847378735
6.1499428600623
6.1402469065925
6.13173720698507
6.1247467721071
6.11960222535381
6.11647052959184
6.11568256457568
6.11829464333487
6.12581434332751
6.14040050221172
6.16500157475286
6.2042710275338
6.26503885632836
6.3740852607084
6.4647221562155
6.40820253138956
6.2928540389667
6.21482912193186
6.21997443280175
6.31204693633995
6.47624213861494
6.69431707231564
6.96032484779617
7.2675435535344
7.61030312622463
7.98839184026085
8.42116963593359
8.91579586481637
9.46902830258949
10.077589920286
10.7352712315968
11.4082689500616
12.0167447747651
12.5274792603185
12.9079510146556
13.1014082602812
13.1111907793787
13.1546719278354
13.8619231193655
15.3823455958111
17.687389594183
19.5901988562044
17.4412242267868
17.6470069548694
18.4856651205791
23.7111924707409
38.3490956491767
40.8040395341576
24.9513495211858
13.0980276644434
9.80038747473202
8.64077513228758
7.915075323304
7.43285126904673
7.13640218892158
6.95635093969086
6.80812563601999
6.64197192719699
6.44792077519444
6.23987876703142
6.03451535402255
5.85082331634338
5.70566210399602
5.60764986685553
5.5595739666477
5.56582412874844
5.62690228862229
5.72873365295722
5.83723198093675
5.89695292605204
5.86772657561193
5.82925694899571
5.82321890650888
5.82855410069487
5.83764738591912
5.84865969513498
5.8601495489617
5.87120791774108
5.88112946175911
5.88964953518626
5.89661351750158
5.901972996557
5.90573004966653
5.90792424305411
5.90861565963997
5.90787856706903
5.90579495549853
5.90245128490833
5.89793556420937
5.89233559975629
5.88573756864239
5.87822507549329
5.86987845781614
5.86077440340953
5.85098567548118
5.8405812317252
5.82962594749622
5.8181806593381
5.8063023287123
5.79404438766716
5.78145721040661
5.76858745475771
5.75547921222827
5.74217448771684
5.72871288991355
5.71513256222781
5.70147046148032
5.68776269016144
5.67404498719503
5.66035330871707
5.64672448722995
5.63319701599622
5.61981194851872
5.60661405023501
5.59365312168829
5.58098582276297
5.56867772080924
5.55680638434767
5.5454646679813
5.53476629883446
5.52485124867791
5.51589657599032
5.50812182848363
5.50183484836899
5.49737539696079
5.49502010512807
5.49515861360876
5.49871710609072
5.50707349931055
5.52222349788957
5.54693298218304
5.58549166684433
5.64416495978386
5.74609123103881
5.83703547328658
5.80443903801413
5.71077898444912
5.63692677538807
5.62670480157293
5.6883590910632
5.81164411785675
5.98177561892979
6.19339357071239
6.44113346012705
6.72038060563483
7.03120599298614
7.38925109562334
7.80081923812009
8.26294892915185
8.77193917636159
9.32143923399531
9.88237010808981
10.3895230455476
10.815329952174
11.1358941281751
11.3086103843624
11.3341029828537
11.3816842047992
11.9499263984912
13.1886820182984
15.0739810546944
16.6719928938562
15.1217782170009
15.3644905693053
16.1294450420453
20.0248186536895
33.4177405538308
38.8766085945291
26.4963501470738
13.4327721358512
9.24097016896103
7.9119012384693
7.1924858320223
6.73555464684038
6.45978246955863
6.29464367756485
6.16134712257758
6.01405613910125
5.84369410319545
5.66260548110455
5.48581137259985
5.32993775766394
5.20928242509873
5.13078966232525
5.09630287741588
5.10854539937516
5.16628210968454
5.2557023426319
5.34687262020011
5.39408904867863
5.36795114733475
5.3357836934189
5.33118124504135
5.33650557708259
5.34528676870954
5.35572325499235
5.36640514004816
5.37651208942155
5.38544977340397
5.39298060524976
5.39897188331762
5.40338591355157
5.40623198212567
5.40755418812947
5.40741618140369
5.40589500350126
5.40307502766049
5.39904468471815
5.39389361601981
5.38771088489952
5.38058355830659
5.37259575244363
5.36382795819832
5.3543566672848
5.34425421827903
5.3335887500793
5.32242400028598
5.31081951245063
5.29883082392665
5.28650981081076
5.27390510903109
5.26106176274229
5.24802214855354
5.23482644746786
5.22151256667024
5.20811690347512
5.19467468092702
5.18122032417891
5.1677879472572
5.15441192405522
5.14112753540333
5.1279717303976
5.11498400399934
5.10220749709855
5.0896902817484
5.077487077758
5.06566124504456
5.05428764944053
5.0434558862746
5.03327536583125
5.02388069003501
5.01544129454125
5.00816845656567
5.00234944872959
4.99832247464732
4.99642083778658
4.99707353182768
5.0011180039328
5.00981751584024
5.02501251366177
5.04927967804433
5.08655555093743
5.14259073500351
5.23731779415424
5.32639482544954
5.31200498709614
5.23763680822196
5.17057770908866
5.15160664727297
5.19191852687819
5.2850290974067
5.41917353214009
5.58968027008727
5.79221437120858
6.02300310418454
6.28232725506592
6.58302635485953
6.93067305576915
7.32268748622189
7.75534732909777
8.22247520885072
8.69893674940152
9.13096915578362
9.49547403897179
9.77398625054816
9.93257607807305
9.96869814759565
10.0161284350163
10.4782670079774
11.499304238364
13.0627408799619
14.4215691548646
13.2760033994015
13.5339541856406
14.2419016583823
17.151969775573
28.9666548313655
36.5718003923327
27.7903273975064
14.2599626884722
9.00162945748275
7.41083044440573
6.66102216254901
6.20893087090641
5.93960890951515
5.77929753557587
5.65318243356665
5.51785179290661
5.3641680736484
5.20273329839101
5.04702858604982
4.91166382164091
4.80884913961959
4.74421353629348
4.7188338314883
4.73408666800169
4.78751127083653
4.86590527255458
4.94311792921894
4.98140733630994
4.95913868593766
4.9330805891091
4.93043498590359
4.93638450970891
4.94536766136008
4.95566190649843
4.9659434705509
4.97548154727684
4.98377131371075
4.99060415575173
4.99587022652247
4.99954522958702
5.00164862141437
5.00223216728884
5.00136609924826
4.99913312048796
4.99562267755195
4.99092768094182
4.9851417218071
4.97835726367213
4.97066423856856
4.96214909405824
4.95289414659402
4.94297725210095
4.93247172431206
4.92144609086936
4.90996417172226
4.8980852943318
4.88586452973315
4.87335305211464
4.86059854485909
4.84764507758823
4.83453388811472
4.8213038561896
4.80799159344527
4.79463210638623
4.78125917506065
4.76790576519501
4.75460451802139
4.74138831615582
4.72829092155291
4.71534771793117
4.70259656738895
4.69007886600787
4.67784078910771
4.66593491554644
4.65442215432196
4.64337441988134
4.63287776108498
4.62303704131647
4.61398121622601
4.60587204490059
4.59891193815229
4.5933705248308
4.58957715818527
4.58789119796378
4.58876373310865
4.59296750058704
4.60166537620535
4.61655345080421
4.64002147754651
4.67567253397218
4.7287834760079
4.8165011366327
4.90235587914949
4.9016569169794
4.84403974828625
4.78500451932628
4.76168639007624
4.78702558274702
4.85757279840704
4.96418572045076
5.10293615518491
5.27031626513268
5.46324370455292
5.6821593000303
5.93774569135446
6.23494693134289
6.57158264467381
6.94412254575711
7.3467441170941
7.75768315938218
8.13238991943657
8.45138645160008
8.69956211307295
8.84811155646009
8.89107493184449
8.93525432286218
9.31413280751146
10.1635054879134
11.4738110043988
12.6398694347893
11.7764984609578
12.0374121984543
12.6954097657847
14.8946374443986
24.9967716381843
33.995186355822
28.6735384109019
15.4992706729313
9.0497664552895
7.09075196460995
6.27210051856579
5.80724301049366
5.53334924274609
5.37039923771053
5.24589419441768
5.11764318081337
4.97572132184944
4.828837504273
4.68898287284239
4.56900857429176
4.4793921764725
4.42470776776228
4.40540902593458
4.42180423733357
4.47060433650794
4.53942052867501
4.60548587340145
4.63755141772308
4.61959999885332
4.59941224698759
4.59907990635053
4.60611349549056
4.6156906470411
4.62619124819797
4.63640124264608
4.6456754022898
4.65358444885419
4.65995004339231
4.66468613039217
4.66778407240437
4.66927595872213
4.66922380270539
4.66770689047193
4.66481594094143
4.66064765755339
4.65530145655522
4.6488767420813
4.6414710930843
4.63317888118745
4.6240903300295
4.61429090480197
4.60386109567523
4.59287618769065
4.58140614079644
4.56951579730827
4.55726511211956
4.54470944326163
4.53189993804573
4.51888394798647
4.50570508156766
4.49240390089391
4.47901840578206
4.46558424985335
4.45213534596571
4.43870428044376
4.42532275565464
4.41202208759852
4.39883377049836
4.38579010834549
4.3729249419303
4.3602744859123
4.34787834569341
4.33578072261871
4.32403195764176
4.31269038773657
4.30182485788711
4.29151773742141
4.28186926201528
4.27300265183536
4.26507207594975
4.25827085737916
4.25285295717673
4.24913532640099
4.24748537564849
4.24836280865685
4.2524895111449
4.26094021680771
4.27527828388392
4.29771355889004
4.33153873424485
4.38159208087313
4.46261745361052
4.54443734620135
4.55388955056532
4.5105740078152
4.45993684357064
4.43521054708459
4.45015230851849
4.50369852313576
4.58896346937639
4.70277761380192
4.84232817939998
5.00511265090595
5.19169772125705
5.41107794245843
5.66765727758471
5.95963920655577
6.283797037793
6.6347734816064
6.99375051545173
7.32377376820465
7.60830486114187
7.83413357678522
7.97517081132649
8.02194149863218
8.06042523699866
8.37239488785226
9.08420587987229
10.1915784737978
11.1991034668345
10.537418230098
10.7942342657478
11.404807970027
13.1016349878866
21.5173488999303
31.2666198823964
29.0876053063244
17.0283742812075
9.3780207271804
6.92882481591963
5.99699618430111
5.50205978729751
5.21405445572965
5.04232397125477
4.91498000759965
4.79002577895273
4.65616000013063
4.52004827202534
4.39219391359686
4.28387333880706
4.2040975781498
4.15657807198068
4.14126412826228
4.15763161274055
4.20186495602517
4.26249343222056
4.31973552497493
4.34763153327474
4.33423645079204
4.31967393487757
4.32190487963769
4.33036461124927
4.34084272852875
4.35183295709128
4.36223826861011
4.37149347405854
4.37923538347774
4.38531685245139
4.38967654800839
4.39232346144836
4.39330443872997
4.39269394902863
4.3905824371949
4.3870706308226
4.38226433033896
4.37627115524467
4.36919787513167
4.36114860511814
4.3522234534062
4.34251760263651
4.33212077035194
4.32111705207181
4.30958453523845
4.29759546857414
4.28521646322414
4.27250877465105