1.00000000000453e-06 	1.00195556483898 	0 	0.872360558169929 	0.00141045057475623 	1588.03287426694
1.00000000000453e-06 	1.00593833258374 	0 	0.872444486195347 	0.00713883707548752 	755.170407038573
1.00000000000453e-06 	1.01006700077429 	0 	0.872674234924781 	0.0166349472485646 	229.19920403495
1.00000000000453e-06 	1.0143469141712 	0 	0.873101195521833 	0.0253597162012904 	119.850714908809
1.00000000000453e-06 	1.01878361332929 	0 	0.87371866575824 	0.0315462838302562 	75.3578677291076
1.00000000000453e-06 	1.02338284177015 	-3.46944695195361e-18 	0.874505557194761 	0.0365020829470353 	52.1066639816106
1.00000000000453e-06 	1.02815055341735 	-6.93889390390723e-18 	0.875453113097707 	0.0409486958340832 	38.5769269005202
1.00000000000453e-06 	1.03309292030413 	-6.93889390390723e-18 	0.876549824918357 	0.045044073645343 	30.0596707569633
1.00000000000453e-06 	1.03821634056339 	-6.93889390390723e-18 	0.877782464733841 	0.048811869529731 	24.3253888914687
1.00000000000453e-06 	1.04352744671036 	-1.04083408558608e-17 	0.879142145973121 	0.0522652591243183 	20.245807550197
1.00000000000453e-06 	1.04903311422874 	-1.04083408558608e-17 	0.880624266161191 	0.0554248235445918 	17.2135183244657
1.00000000000453e-06 	1.05474047047132 	-6.93889390390723e-18 	0.882226772979762 	0.0583156743454144 	14.8806241806517
1.00000000000453e-06 	1.06065690388671 	-3.46944695195361e-18 	0.883948989347545 	0.0609636099144808 	13.0361201219334
1.00000000000453e-06 	1.06679007358401 	-3.46944695195361e-18 	0.885790936249358 	0.0633929352709202 	11.5454335007102
1.00000000000453e-06 	1.07314791924792 	-6.93889390390723e-18 	0.887752907751189 	0.0656255384755971 	10.318961251775
1.00000000000453e-06 	1.07973867141705 	-3.46944695195361e-18 	0.889835197840158 	0.0676806526114287 	9.29481790892506
1.00000000000453e-06 	1.08657086213875 	0 	0.892037924485751 	0.0695749445277914 	8.42891093682446
1.00000000000453e-06 	1.09365333601424 	0 	0.894360913664642 	0.0713227393479581 	7.68898079040014
1.00000000000453e-06 	1.10099526164836 	3.46944695195361e-18 	0.89680362102827 	0.072936286297957 	7.0508830228696
1.00000000000453e-06 	1.10860614351884 	6.93889390390723e-18 	0.89936507875776 	0.074426022026208 	6.49618958354803
1.00000000000453e-06 	1.11649583428022 	3.46944695195361e-18 	0.902043860880111 	0.0758008128695812 	6.01059431992622
1.00000000000453e-06 	1.12467454751866 	6.93889390390723e-18 	0.904838063793937 	0.0770681694670032 	5.58282472998935
1.00000000000453e-06 	1.13315287097387 	1.73472347597681e-17 	0.907745299116954 	0.0782344327563233 	5.20388188728052
1.00000000000453e-06 	1.1419417802455 	2.08166817117217e-17 	0.910762694913334 	0.0793049334342186 	4.86649868903649
1.00000000000453e-06 	1.15105265300152 	1.38777878078145e-17 	0.913886902054479 	0.0802841283059968 	4.56474667132739
1.00000000000453e-06 	1.1604972837072 	1.04083408558608e-17 	0.917114105052334 	0.0811757171588606 	4.29374587876967
1.00000000000453e-06 	1.17028789889366 	1.38777878078145e-17 	0.920440039612771 	0.0819827436217437 	4.04944728380999
1.00000000000453e-06 	1.1804371729856 	1.73472347597681e-17 	0.923860018872124 	0.0827076829760518 	3.82846695905912
1.00000000000453e-06 	1.19095824470904 	2.42861286636753e-17 	0.927368968336924 	0.0833525191299845 	3.62795773031631
1.00000000000453e-06 	1.20186473410003 	2.42861286636753e-17 	0.930961468795749 	0.083918812277392 	3.44550845618012
1.00000000000453e-06 	1.21317076013637 	2.08166817117217e-17 	0.934631805920997 	0.0844077582846463 	3.27906406559337
1.00000000000453e-06 	1.22489095901542 	2.08166817117217e-17 	0.938374024708541 	0.0848202405969615 	3.12686149779217
1.00000000000453e-06 	1.23704050310128 	2.08166817117217e-17 	0.942181986458284 	0.0851568753738555 	2.98737804732898
1.00000000000453e-06 	1.24963512056619 	2.42861286636753e-17 	0.946049425454314 	0.0854180505794763 	2.85928953468518
1.00000000000453e-06 	1.26269111575139 	2.77555756156289e-17 	0.94997000155337 	0.0856039598042829 	2.74143634246784
1.00000000000453e-06 	1.27622539027388 	2.77555756156289e-17 	0.953937344955998 	0.0857146316415116 	2.63279577767242
1.00000000000453e-06 	1.29025546490643 	2.77555756156289e-17 	0.957945093911144 	0.0857499554815133 	2.53245953227625
1.00000000000453e-06 	1.30479950225895 	2.77555756156289e-17 	0.961986931374982 	0.0857097046431631 	2.43961529174453
1.00000000000453e-06 	1.31987633029101 	3.12250225675825e-17 	0.966056622153618 	0.0855935577897885 	2.35353179981957
1.00000000000453e-06 	1.33550546668544 	3.81639164714898e-17 	0.970148044263495 	0.0854011195030101 	2.2735468973146
1.00000000000453e-06 	1.35170714411495 	3.81639164714898e-17 	0.97425520981428 	0.0851319408318313 	2.19905814058926
1.00000000000453e-06 	1.3685023364343 	3.81639164714898e-17 	0.978372277241953 	0.0847855405988008 	2.12951555410799
1.00000000000453e-06 	1.38591278583198 	4.16333634234434e-17 	0.982493559739924 	0.0843614279982986 	2.06441601897732
1.00000000000453e-06 	1.40396103097652 	4.16333634234434e-17 	0.98661353300962 	0.0838591266524256 	2.00329885688566
1.00000000000453e-06 	1.42267043619387 	3.81639164714898e-17 	0.990726843577458 	0.0832781999514636 	1.94574228994816
1.00000000000453e-06 	1.44206522171365 	3.12250225675825e-17 	0.994828317516001 	0.0826182771702334 	1.89136056571754
1.00000000000453e-06 	1.46217049502345 	3.12250225675825e-17 	0.998912967681587 	0.0818790797563909 	1.83980163157725
1.00000000000453e-06 	1.48301228337162 	2.77555756156289e-17 	1.00297599810147 	0.0810604474362934 	1.79074531377478
1.00000000000453e-06 	1.50461756746086 	2.42861286636753e-17 	1.00701280626465 	0.0801623639767008 	1.74390196007204
1.00000000000453e-06 	1.52701431637603 	2.77555756156289e-17 	1.01101898444215 	0.0791849823527441 	1.69901146797599
1.00000000000453e-06 	1.55023152379144 	3.46944695195361e-17 	1.01499032018968 	0.0781286489170266 	1.65584260499652
1.00000000000453e-06 	1.57429924550461 	3.81639164714898e-17 	1.01892279595621 	0.0769939261378911 	1.61419254617266
1.00000000000453e-06 	1.59924863834497 	3.46944695195361e-17 	1.02281258794298 	0.0757816135369532 	1.57388657871631
1.00000000000453e-06 	1.62511200050782 	4.16333634234434e-17 	1.02665606445381 	0.0744927665190333 	1.53477793933449
1.00000000000453e-06 	1.65192281336593 	4.5102810375397e-17 	1.03044978374618 	0.0731287128488901 	1.49674776564304
1.00000000000453e-06 	1.67971578481283 	3.81639164714898e-17 	1.03419049122675 	0.071691066588409 	1.459705162517
1.00000000000453e-06 	1.70852689419381 	3.81639164714898e-17 	1.03787511586094 	0.0701817393339043 	1.42358740510893
1.00000000000453e-06 	1.73839343888296 	4.16333634234434e-17 	1.04150076566168 	0.0686029485555569 	1.38836032222678
1.00000000000453e-06 	1.76935408256639 	4.5102810375397e-17 	1.04506472210108 	0.0669572227149892 	1.35401892645834
1.00000000000453e-06 	1.80144890529426 	4.85722573273506e-17 	1.0485644326917 	0.0652474025781885 	1.32058838026127
1.00000000000453e-06 	1.83471945536634 	4.85722573273506e-17 	1.05199750077424 	0.0634766376877427 	1.28812540971847
1.00000000000453e-06 	1.86920880311829 	4.5102810375397e-17 	1.05536168182721 	0.0616483762059327 	1.25672029964034
1.00000000000453e-06 	1.9049615966783 	5.20417042793042e-17 	1.05865491850548 	0.059766345045494 	1.22649962402353
1.00000000000453e-06 	1.94202411976624 	5.8702771376512e-17 	1.06187531097989 	0.0578344473454108 	1.19762924295264
1.00000000001227e-06 	1.98044435161019 	1.38777878078145e-17 	1.06502007122397 	0.055856992539749 	1.17032274476694
1.00000000001227e-06 	2.02024009608346 	1.38777878078145e-17 	1.06806106186656 	0.0538565521679359 	1.14505044060939
1.00000000001227e-06 	2.06000503604194 	6.93889390390723e-18 	1.07092537532291 	0.0518911148516787 	1.12262763399235
1.00000000001227e-06 	2.09836474743797 	0 	1.07355533826148 	0.0500137021604742 	1.10361710721513
1.00000000001227e-06 	2.13536888877258 	0 	1.07595352450992 	0.0482371109822958 	1.08800920296489
1.00000000001227e-06 	2.17106536369585 	3.46944695195361e-18 	1.07814558771806 	0.0465562316710841 	1.07560559694098
1.00000000001227e-06 	2.20550038302045 	3.46944695195361e-18 	1.08015383953061 	0.0449657280386533 	1.06623746268385
1.00000000001227e-06 	2.23871852454379 	-6.93889390390723e-18 	1.08199744134404 	0.0434602180746501 	1.0597623950443
1.00000000001227e-06 	2.27076279075614 	-1.38777878078145e-17 	1.08369302913669 	0.0420343979500264 	1.0560620885848
1.00000000001227e-06 	2.30167466450941 	-1.38777878078145e-17 	1.08525512487672 	0.0406831260116968 	1.05504061745091
1.00000000001227e-06 	2.33149416271873 	-1.04083408558608e-17 	1.08669645377192 	0.0394014782115113 	1.05662316433313
1.00000000001227e-06 	2.36025988816627 	-1.04083408558608e-17 	1.08802821085701 	0.038184782758204 	1.06075508547643
1.00000000001227e-06 	2.38800907947441 	-1.38777878078145e-17 	1.08926028343225 	0.0370286395716549 	1.0674012394661
1.00000000001227e-06 	2.41477765931296 	-1.38777878078145e-17 	1.09040143621217 	0.0359289286544136 	1.07654553911792
1.00000000001227e-06 	2.44060028090273 	-1.38777878078145e-17 	1.09145946624904 	0.0348818104625131 	1.08819070771208
1.00000000001227e-06 	2.46551037287587 	-1.38777878078145e-17 	1.09244133320307 	0.0338837206009023 	1.10235823539662
1.00000000001227e-06 	2.48954018255081 	-1.38777878078145e-17 	1.09335326933976 	0.0329313606006565 	1.11908854140675
1.00000000001227e-06 	2.512720817678 	-1.38777878078145e-17 	1.09420087278688 	0.0320216861019328 	1.13844135483887
1.00000000001227e-06 	2.53508228671037 	-1.38777878078145e-17 	1.09498918691451 	0.0311518934338404 	1.16049633256375
1.00000000001227e-06 	2.55665353765073 	-1.04083408558608e-17 	1.09572276816529 	0.0303194053261386 	1.18535393850242
1.00000000001227e-06 	2.57746249552637 	-1.04083408558608e-17 	1.09640574423147 	0.0295218562905645 	1.21313661467225
1.00000000001227e-06 	2.59753609853934 	-1.04083408558608e-17 	1.09704186413144 	0.0287570780585061 	1.24399028173155
1.00000000001227e-06 	2.6169003329393 	-6.93889390390723e-18 	1.09763454146024 	0.0280230853466019 	1.27808621573905
1.00000000001227e-06 	2.6355802666639 	-1.38777878078145e-17 	1.09818689186524 	0.0273180621348229 	1.31562335905485
1.00000000001227e-06 	2.6536000817905 	-2.08166817117217e-17 	1.09870176561608 	0.0266403485765855 	1.35683113738648
1.00000000001227e-06 	2.67098310584103 	-2.08166817117217e-17 	1.09918177599091 	0.0259884286127013 	1.40197287272839
1.00000000001227e-06 	2.68775184198057 	-2.77555756156289e-17 	1.09962932408057 	0.0253609183268266 	1.45134990439026
1.00000000001227e-06 	2.7039279981488 	-3.46944695195361e-17 	1.10004662051421 	0.0247565550566912 	1.50530655881365
1.00000000001227e-06 	2.71953251516198 	-3.46944695195361e-17 	1.10043570452905 	0.0241741872606289 	1.56423614523384
1.00000000001227e-06 	2.73458559382185 	-3.46944695195361e-17 	1.10079846074081 	0.0236127651311651 	1.62858820085091
1.00000000001227e-06 	2.74910672106653 	-3.46944695195361e-17 	1.10113663391624 	0.0230713319454587 	1.69887726924952
1.00000000001227e-06 	2.76311469519732 	-3.46944695195361e-17 	1.10145184200355 	0.0225490161453706 	1.77569357370313
1.00000000001227e-06 	2.776627650214 	-3.46944695195361e-17 	1.10174558763878 	0.0220450241472382 	1.85971604864101
1.00000000001227e-06 	2.78966307929018 	-3.46944695195361e-17 	1.10201926831382 	0.0215586338926443 	1.95172832607773
1.00000000001227e-06 	2.80223785741905 	-3.81639164714898e-17 	1.10227418536519 	0.0210891891662972 	2.05263845045427
1.00000000001227e-06 	2.81436826325886 	-4.5102810375397e-17 	1.10251155191965 	0.0206360947253506 	2.16350333081384
1.00000000001227e-06 	2.82607000020648 	-4.85722573273506e-17 	1.10273249991305 	0.0201988123058455 	2.28555925563961
1.00000000001227e-06 	2.83735821672614 	-5.55111512312578e-17 	1.10293808628214 	0.0197768575960646 	2.42026022443731
1.00000000001227e-06 	2.8482475259599 	-6.24500451351651e-17 	1.10312929841408 	0.0193697982927351 	2.56932643637705
1.00000000001227e-06 	2.85875202464506 	-6.24500451351651e-17 	1.10330705892553 	0.018977253382816 	2.73480608548811
1.00000000001227e-06 	2.86888531136304 	-6.24500451351651e-17 	1.10347222983148 	0.018598893818409 	2.91915474008262
1.00000000001227e-06 	2.87866050414343 	-6.24500451351651e-17 	1.10362561615365 	0.0182344447701485 	3.12533817383198
1.00000000001227e-06 	2.88809025744591 	-6.24500451351651e-17 	1.10376796900831 	0.0178836896460153 	3.35696678142659
1.00000000001227e-06 	2.89718677854204 	-6.24500451351651e-17 	1.10389998820437 	0.0175464760308771 	3.61847297906325
1.00000000001227e-06 	2.90596184331819 	-6.24500451351651e-17 	1.10402232437367 	0.0172227236061501 	3.91534776242508
1.00000000001227e-06 	2.91442681151997 	-6.59194920871187e-17 	1.10413558064619 	0.0169124338922694 	4.25445966109651
1.00000000001227e-06 	2.92259264145801 	-6.93889390390723e-17 	1.10424031387358 	0.0166157012162771 	4.64448994520612
1.00000000001227e-06 	2.93046990419395 	-7.28583859910259e-17 	1.10433703539336 	0.01633272345524 	5.09653414680414
1.00000000001227e-06 	2.93806879722526 	-7.63278329429795e-17 	1.10442621131347 	0.0160638095004765 	5.62494513293577
1.00000000001227e-06 	2.94539915768639 	-7.28583859910259e-17 	1.10450826228024 	0.0158093773973198 	6.24853283745307
1.00000000001227e-06 	2.95247047508335 	-6.93889390390723e-17 	1.10458356267098 	0.015569931573982 	6.99230030471488
1.00000000001227e-06 	2.9592919035784 	-6.93889390390723e-17 	1.10465243911844 	0.0153459973039185 	7.8900028750123
1.00000000001227e-06 	2.96587227384056 	-6.93889390390723e-17 	1.1047151682206 	0.0151379714397514 	8.98800069422532
1.00000000001227e-06 	2.97222010447726 	-7.28583859910259e-17 	1.10477197322528 	0.0149458126396044 	10.3511998040192
1.00000000001227e-06 	2.97834361306218 	-7.97972798949331e-17 	1.10482301941792 	0.0147684263667403 	12.0724788255505
1.00000000001227e-06 	2.98425072677325 	-7.97972798949331e-17 	1.10486840739075 	0.0146024687614869 	14.2881717904561
1.00000000001227e-06 	2.98994909265478 	-7.63278329429795e-17 	1.10490816086441 	0.014440033351439 	17.2046124954021
1.00000000001227e-06 	2.99544608751689 	-7.63278329429795e-17 	1.10494220504062 	0.0142641481215927 	21.1461749794725
1.00000000001227e-06 	3.00074882748522 	-7.97972798949331e-17 	1.10497035109321 	0.0140398426272976 	26.6484571284371
1.00000000001227e-06 	3.00586417721304 	-8.67361737988404e-17 	1.10499227027467 	0.0136958596706322 	34.6554284570734
1.00000000001227e-06 	3.01079875876789 	-9.0205620750794e-17 	1.10500693654573 	0.0130858468813928 	46.984852328024
1.00000000001227e-06 	3.01555896020418 	-9.0205620750794e-17 	1.10501064457476 	0.0119074253483368 	67.5983841083448
1.00000000001227e-06 	3.02015094383281 	-9.71445146547012e-17 	1.10499860713989 	0.00960939267377604 	107.002153239673
1.00000000001227e-06 	3.02458065419862 	-1.00613961606655e-16 	1.10497518124174 	0.0059625023995277 	207.441164398092
1.00000000001227e-06 	3.02885382577583 	-1.04083408558608e-16 	1.10495484714329 	0.00232674931697914 	700.022761592797
