6 	0.00391112967796271 	0 	1.2016754354265 	9.01698065156357e-05 	445.398906559031
6 	0.0118766651674914 	0 	1.20166949383358 	0.000890730818867753 	124.763992279942
6 	0.020134001548576 	-1.38777878078145e-17 	1.20165244842775 	0.00328301323412675 	32.113767828352
6 	0.0286938283423949 	-3.12250225675825e-17 	1.2016151552815 	0.00603105399736274 	14.7816233545075
6 	0.0375672266585909 	-3.12250225675825e-17 	1.20155529013246 	0.00831411971657527 	9.28982718318118
6 	0.0467656835403032 	-3.12250225675825e-17 	1.20148077609892 	0.0101822506607102 	6.82876644893651
6 	0.0563011068347007 	-3.46944695195361e-17 	1.20139801446512 	0.0117877303621407 	5.45626242681525
6 	0.0661858406082649 	-3.12250225675825e-17 	1.2013098592013 	0.0132243927189985 	4.58456399047909
6 	0.0764326811267816 	-3.46944695195361e-17 	1.20121792480432 	0.0145471449469164 	3.98369140208771
6 	0.0870548934207257 	-3.81639164714898e-17 	1.20112353627659 	0.0157902156919444 	3.54607116017266
6 	0.0980662284574838 	-3.12250225675825e-17 	1.20102781600182 	0.016976385305108 	3.21475731829075
6 	0.109480940942647 	-3.12250225675825e-17 	1.20093171267402 	0.018121665764277 	2.95678372188715
6 	0.121313807773417 	-3.81639164714898e-17 	1.20083605088282 	0.019237819780444 	2.75173769238822
6 	0.133580147168011 	-4.16333634234434e-17 	1.20074156514816 	0.020333798650584 	2.58630132968077
6 	0.146295838495839 	-4.16333634234434e-17 	1.20064891908645 	0.0214166096042807 	2.45141647439485
6 	0.159477342834115 	-4.16333634234434e-17 	1.20055871616914 	0.0224918603177129 	2.34071082134076
6 	0.173141724277517 	-4.16333634234434e-17 	1.20047150588914 	0.0235641113001878 	2.24957538779366
6 	0.18730667202848 	-4.5102810375397e-17 	1.20038778696844 	0.0246371085072496 	2.1745987765778
6 	0.201990523296728 	-4.5102810375397e-17 	1.20030800829981 	0.0257139378274747 	2.11320669682561
6 	0.217212287037676 	-5.20417042793042e-17 	1.20023256800683 	0.0267971262384475 	2.06342455119133
6 	0.232991668560441 	-5.89805981832114e-17 	1.20016181077473 	0.0278887047635504 	2.02371645187525
6 	0.249349095037321 	-5.20417042793042e-17 	1.20009602348024 	0.0289902425858243 	1.99287314523452
6 	0.266305741947753 	-5.20417042793042e-17 	1.20003542901983 	0.0301028580881186 	1.9699320352229
6 	0.283883560490999 	-4.85722573273506e-17 	1.19998017817764 	0.0312272102777951 	1.95411871425655
6 	0.30210530600303 	-4.85722573273506e-17 	1.19993033929321 	0.0323634725162739 	1.94480313464018
6 	0.320994567414414 	-4.85722573273506e-17 	1.19988588545386 	0.0335112894251335 	1.94146584631147
6 	0.340575797787321 	-4.16333634234434e-17 	1.19984667888588 	0.0346697171242739 	1.94367117249646
6 	0.360874345971201 	-4.16333634234434e-17 	1.19981245222697 	0.0358371464925306 	1.9510451271412
6 	0.381916489418091 	-4.85722573273506e-17 	1.19978278625714 	0.037011208898078 	1.96325649271019
6 	0.403729468200046 	-5.20417042793042e-17 	1.19975708312131 	0.0381886638341722 	1.97999989331532
6 	0.426341520272733 	-4.85722573273506e-17 	1.1997345346518 	0.0393652681589362 	2.00097999166288
6 	0.441285719951471 	-4.16333634234434e-17 	1.19972110333924 	0.0401205530670583 	2.01635007974254
6 	0.453216730116548 	-3.81639164714898e-17 	1.19971126376663 	0.0407034988488753 	2.02973648543564
6 	0.474081006202548 	-4.5102810375397e-17 	1.19969449938782 	0.0416934077623851 	2.05436802872216
6 	0.499270241132363 	-4.5102810375397e-17 	1.19967407800167 	0.042830300511286 	2.08611914091649
6 	0.525382231502763 	-2.77555756156289e-17 	1.19965027830182 	0.0439365609241807 	2.12073252410512
6 	0.552450780547767 	-1.04083408558608e-17 	1.19962059370066 	0.04500055494639 	2.15773563604902
6 	0.58051092981285 	-3.46944695195361e-18 	1.19958939841748 	0.0460091835878788 	2.1965953575079
6 	0.609599004517911 	6.93889390390723e-18 	1.19956970318429 	0.0469491483148313 	2.23672612897984
6 	0.639752660582033 	1.38777878078145e-17 	1.19955915354097 	0.0478042260954897 	2.27718439376708
6 	0.671010933370887 	1.04083408558608e-17 	1.19952818869759 	0.0485436912099457 	2.31588427618504
6 	0.703414288229901 	1.38777878078145e-17 	1.19945010844743 	0.0491170892736965 	2.34944394420068
6 	0.737004672868607 	2.08166817117217e-17 	1.19931673029193 	0.0494701615291374 	2.37419515593347
6 	0.771825571663977 	2.08166817117217e-17 	1.1991272060896 	0.0495584184707878 	2.38707269859204
6 	0.807922061953054 	2.25514051876985e-17 	1.19887862339515 	0.0493503096192684 	2.38587987805362
6 	0.845340872387743 	2.77555756156289e-17 	1.19856375343889 	0.0488257421225188 	2.36922640556605
6 	0.884130443427309 	2.94902990916057e-17 	1.19817189282321 	0.0479754393103153 	2.33647194414581
6 	0.924340990046898 	3.12250225675825e-17 	1.19769053458173 	0.0468028883642729 	2.28775164655526
6 	0.966024566743242 	3.46944695195361e-17 	1.19710692698394 	0.0453274967070784 	2.22399335602283
6 	1.00923513492173 	3.20923843055709e-17 	1.19640920607184 	0.0435864901450246 	2.14685410514709
6 	1.05402863275205 	3.03576608295941e-17 	1.19558712448434 	0.0416335877086544 	2.05857261919104
6 	1.10046304758287 	2.90566182226115e-17 	1.19463250664623 	0.0395338474222427 	1.96176201319095
6 	1.14859849100923 	2.47198095326695e-17 	1.19353953652225 	0.0373558224672601 	1.85919488540325
6 	1.19849727668994 	1.94072188874905e-17 	1.19230492504715 	0.0351656206477088 	1.75400607157118
6 	1.25022400101563 	1.85398571495021e-17 	1.19092711364224 	0.0330300859147099 	1.65093986812392
6 	1.30384562673186 	2.08166817117217e-17 	1.18940285760813 	0.0309930353303133 	1.55248968997745
6 	1.35943156962566 	2.08166817117217e-17 	1.18774485247842 	0.0290601221313176 	1.4583097030697
6 	1.41705378838763 	2.42861286636753e-17 	1.18595903189582 	0.0272312946334776 	1.3687934207451
6 	1.47678687776592 	2.42861286636753e-17 	1.18405241646876 	0.0254986812373041 	1.28429781629575
6 	1.53870816513278 	2.08166817117217e-17 	1.18203349274511 	0.0238445106619608 	1.20419921568248
6 	1.60289781058851 	2.08166817117217e-17 	1.17991376641537 	0.0222410786158995 	1.12639648381234
6 	1.66943891073267 	2.42861286636753e-17 	1.17770824785293 	0.0206706740765546 	1.05009233445989
6 	1.73841760623657 	3.12250225675825e-17 	1.17543476554028 	0.0191253839491361 	0.976048574037604
6 	1.8099231933566 	2.77555756156289e-17 	1.17313050488835 	0.0175898865349984 	0.904968427870286
6 	1.88404823953249 	1.73472347597681e-17 	1.17079104190891 	0.0160533013914559 	0.838053162374429
6 	1.96088870322038 	1.38777878078145e-17 	1.16854952351409 	0.0146107531152506 	0.781048332814394
6 	2.02024009608346 	1.38777878078145e-17 	1.1667972059435 	0.0134964913474488 	0.742048036222237
6 	2.06000503604194 	0 	1.16552308620924 	0.0127082956280176 	0.718055568692052
6 	2.09836474743796 	0 	1.16444256709798 	0.0120617738748804 	0.70115945382856
6 	2.13536888877257 	0 	1.16342115888422 	0.0114722236001016 	0.688455084059819
6 	2.17106536369584 	-3.46944695195361e-18 	1.1624558382547 	0.0109350537707253 	0.679755638689021
6 	2.20550038302044 	0 	1.16154619734205 	0.0104474966187647 	0.674939214497164
6 	2.23871852454378 	6.93889390390723e-18 	1.1606900588706 	0.0100068645798382 	0.673927726060004
6 	2.27076279075613 	1.04083408558608e-17 	1.15988496844 	0.00961055450390331 	0.676677865877279
6 	2.3016746645094 	1.04083408558608e-17 	1.15912860223443 	0.00925604476934902 	0.683173923192241
6 	2.33149416271872 	6.93889390390723e-18 	1.15841868200485 	0.00894088934263522 	0.693422045983997
6 	2.36025988816627 	6.93889390390723e-18 	1.15775297604637 	0.0086627087524831 	0.707445519306121
6 	2.38800907947441 	6.93889390390723e-18 	1.15712930776724 	0.00841917887270009 	0.725280814131779
6 	2.41477765931295 	6.93889390390723e-18 	1.15654555905575 	0.00820801901271005 	0.746974341730371
6 	2.44060028090272 	3.46944695195361e-18 	1.15599967189654 	0.00802698131040284 	0.772580014276166
6 	2.46551037287586 	0 	1.15548964941348 	0.00787384353960079 	0.802157826334205
6 	2.48954018255081 	0 	1.15501355667399 	0.00774640716104969 	0.83577371881944
6 	2.512720817678 	0 	1.15456952148887 	0.00764250181934813 	0.873500961986786
6 	2.53508228671037 	-3.46944695195361e-18 	1.15415573530453 	0.00755999663267227 	0.915423202212093
6 	2.55665353765073 	-1.04083408558608e-17 	1.15377045416714 	0.00749681769147831 	0.961639175547098
6 	2.57746249552636 	-1.38777878078145e-17 	1.15341199967449 	0.00745097034272093 	1.01226892683973
6 	2.59753609853934 	-1.38777878078145e-17 	1.15307875981366 	0.00742056423212772 	1.06746122110965
6 	2.61690033293929 	-1.38777878078145e-17 	1.15276918959813 	0.00740383880216143 	1.12740172891005
6 	2.63558026666389 	-1.38777878078145e-17 	1.15248181146795 	0.00739918702364286 	1.19232153796881
6 	2.65360008179049 	-1.38777878078145e-17 	1.15221521551884 	0.00740517553562445 	1.26250560544937
6 	2.67098310584102 	-1.38777878078145e-17 	1.15196805950779 	0.00742055999511804 	1.33830092016614
6 	2.68775184198056 	-1.73472347597681e-17 	1.15173906765301 	0.00744429518955709 	1.42012438186806
6 	2.70392799814879 	-2.08166817117217e-17 	1.15152702935393 	0.00747554023758529 	1.50847071076594
6 	2.71953251516198 	-2.08166817117217e-17 	1.15133081301418 	0.00751365990958583 	1.60392106397024
6 	2.73458559382185 	-2.08166817117217e-17 	1.15114938062208 	0.0075582236754495 	1.70715346976117
6 	2.74910672106653 	-2.08166817117217e-17 	1.15098151465778 	0.00760900411326551 	1.81895862472768
6 	2.76311469519732 	-2.08166817117217e-17 	1.15082603229653 	0.00766594538746266 	1.94045455673095
6 	2.776627650214 	-1.73472347597681e-17 	1.1506825451993 	0.00772911978033466 	2.07356265691681
6 	2.78966307929018 	-1.38777878078145e-17 	1.15055083733265 	0.00779850929084755 	2.22084820258371
6 	2.80223785741904 	-1.73472347597681e-17 	1.15043015680241 	0.00787341266095102 	2.38433527667632
6 	2.81436826325886 	-1.38777878078145e-17 	1.15031971823825 	0.00795217528648233 	2.56479444647759
6 	2.82607000020647 	-6.93889390390723e-18 	1.15021878360959 	0.0080327172007936 	2.76225435177974
6 	2.83735821672613 	-6.93889390390723e-18 	1.150126514455 	0.00811308483618924 	2.97671172086127
6 	2.8482475259599 	-6.93889390390723e-18 	1.15004210580898 	0.00819155811870018 	3.20842553732964
6 	2.85875202464506 	0 	1.14996484052855 	0.00826651814888748 	3.45792646049644
6 	2.86888531136304 	6.93889390390723e-18 	1.14989409311661 	0.00833625717363649 	3.7259047269749
6 	2.87866050414343 	1.04083408558608e-17 	1.14982931664954 	0.00839883021544144 	4.01309171918239
6 	2.88809025744591 	1.38777878078145e-17 	1.14977002430886 	0.00845198174246651 	4.32018995735283
6 	2.89718677854204 	1.38777878078145e-17 	1.14971576939034 	0.00849315591657732 	4.64787153895151
6 	2.90596184331818 	1.38777878078145e-17 	1.14966612537814 	0.00851960507571669 	4.99686613777309
6 	2.91442681151997 	1.04083408558608e-17 	1.14962066935936 	0.00852862236395543 	5.36819405830155
6 	2.922592641458 	6.93889390390723e-18 	1.14957898366687 	0.00851790058769232 	5.76365053372768
6 	2.93046990419394 	6.93889390390723e-18 	1.14954073064587 	0.00848591135053058 	6.1866754753481
6 	2.93806879722526 	6.93889390390723e-18 	1.14950587818714 	0.00843198084756793 	6.64370326577095
6 	2.94539915768638 	3.46944695195361e-18 	1.14947465343034 	0.008355634465471 	7.14581173751199
6 	2.95247047508334 	0 	1.14944702601462 	0.00825587728694345 	7.70926936515227
6 	2.9592919035784 	0 	1.14942264492749 	0.0081310304082476 	8.3546049051553
6 	2.96587227384055 	0 	1.14940124202984 	0.00797861806701002 	9.10768230819545
6 	2.97222010447726 	0 	1.14938267805207 	0.00779527665738227 	10.004384650277
6 	2.97834361306218 	0 	1.14936682279911 	0.00757644891211849 	11.0971450371541
6 	2.98425072677325 	3.46944695195361e-18 	1.14935354833243 	0.00731553175568065 	12.464614928055
6 	2.98994909265477 	6.93889390390723e-18 	1.14934272968394 	0.00700245081493381 	14.2287217403277
6 	2.99544608751689 	6.93889390390723e-18 	1.14933423656482 	0.00662118304670281 	16.5862558200553
6 	3.00074882748522 	6.93889390390723e-18 	1.14932792055915 	0.0061453441595338 	19.8709254580383
6 	3.00586417721304 	3.46944695195361e-18 	1.14932359754677 	0.00553058528024369 	24.6843394915024
6 	3.01079875876789 	0 	1.14932101746703 	0.00470485265173532 	32.2047211836725
6 	3.01555896020418 	0 	1.14931980244021 	0.00358137444815485 	45.1024926794347
6 	3.02015094383281 	0 	1.14931941753123 	0.00220543202067972 	71.7315055418246
6 	3.02458065419861 	0 	1.14931937322047 	0.000954987174203332 	153.399402634311
6 	3.02885382577582 	0 	1.14931947333517 	0.000245034818116455 	648.476894904129
6 	3.03297599039165 	0 	1.14931961952254 	2.82022454638551e-05 	1461.70764084787
