/*--------------------------------*- C++ -*----------------------------------*\
  =========                 |
  \\      /  F ield         | OpenFOAM: The Open Source CFD Toolbox
   \\    /   O peration     | Website:  https://openfoam.org
    \\  /    A nd           | Version:  7
     \\/     M anipulation  |
\*---------------------------------------------------------------------------*/
FoamFile
{
    version     2.0;
    format      ascii;
    class       volSymmTensorField;
    location    "1000";
    object      bijDelta;
}
// * * * * * * * * * * * * * * * * * * * * * * * * * * * * * * * * * * * * * //

dimensions      [0 0 0 0 0 0 0];

internalField   nonuniform List<symmTensor> 
15600
(
(5.13407062084922e-06 7.30904466289517e-08 -3.9805412433894e-26 -2.51690916753698e-06 5.07744438926744e-24 -2.61637646187453e-06)
(1.48080923052637e-06 3.63695173497819e-08 1.12183274041809e-22 -7.28149892526554e-07 2.92452761026995e-24 -7.52433585348941e-07)
(1.73647552258653e-06 -3.06139720057265e-07 9.09599451166771e-24 -8.40458585963341e-07 2.09310792818025e-23 -8.95748185292472e-07)
(3.40911521294153e-06 -1.36088023662579e-06 -1.40500025141265e-18 -1.50312191751814e-06 3.61537265942043e-19 -1.90542161177149e-06)
(1.58210293819357e-06 -1.20270194077338e-06 -8.76343926480057e-19 -5.03120047492862e-07 3.96442785605135e-19 -1.07865926055953e-06)
(8.16906554310272e-07 -9.15047620423189e-07 1.96277306473375e-21 -1.17565011282861e-07 -1.15433991027791e-21 -6.99131782516605e-07)
(4.1252768908966e-07 -5.93838618812913e-07 9.31085212839293e-22 1.45793839813198e-08 -7.005832995705e-22 -4.26978966570359e-07)
(2.35615948719912e-07 -3.93019647879143e-07 1.27910204132337e-20 4.08188437337479e-08 -1.4042260159054e-21 -2.76351878598695e-07)
(1.4403898847456e-07 -2.68208212668718e-07 -7.79808261482984e-20 4.24456004338594e-08 7.28445140736352e-20 -1.86428654718585e-07)
(1.25931607194986e-07 -2.44665242611237e-07 -1.01554112586506e-19 4.37095298751445e-08 7.86480302131712e-20 -1.69590254905442e-07)
(1.37329515795099e-07 -2.64067911252322e-07 -1.32477278764061e-20 4.60303863897242e-08 1.67643221623291e-21 -1.83304905213562e-07)
(1.90143087059447e-07 -3.51529717531362e-07 -2.50303038960621e-25 5.48659931362109e-08 1.95139799439699e-25 -2.44935592169205e-07)
(2.69840461474945e-07 -4.7892054487002e-07 9.2168988624068e-23 6.53519987914935e-08 -6.03842000531786e-24 -3.35091922635884e-07)
(3.62253546047562e-07 -6.17672656941797e-07 4.32178792817417e-21 7.20152298466785e-08 -3.34095597083001e-21 -4.34138521312389e-07)
(4.20510030105595e-07 -6.9190428994825e-07 -3.82961468863713e-21 6.80785277889384e-08 2.88717849808155e-21 -4.88442010636617e-07)
(3.86904397031869e-07 -6.18168379446938e-07 1.65929875258605e-23 5.1285477693846e-08 -2.87052243841156e-24 -4.38058444049433e-07)
(2.3868677080554e-07 -3.69034523056314e-07 -9.39916225671685e-22 2.41166133459741e-08 5.09009658233381e-22 -2.62724558901319e-07)
(5.845321489245e-08 -8.48748433699725e-08 -5.5826441166975e-22 2.61873097306966e-09 3.81423207173944e-22 -6.10536279453441e-08)
(1.27931694287458e-08 -1.86530560904619e-08 -5.42709292516806e-22 9.32765592143196e-10 3.79452508941757e-22 -1.37218180637741e-08)
(3.06127690487325e-07 -3.88825290817587e-07 -2.05167986833837e-21 -1.65604933975531e-08 1.68421044852785e-21 -2.89480344301203e-07)
(1.09237400206295e-06 -1.2082695723682e-06 -1.50566404874659e-21 -1.57342570935944e-07 9.31347171082421e-22 -9.34750977788339e-07)
(2.31481338909757e-06 -2.15055832022465e-06 1.73048266246352e-21 -5.40049423538577e-07 -1.35030918849043e-21 -1.77423164283387e-06)
(3.52098596450309e-06 -2.66050590838065e-06 1.37065080340401e-20 -1.09763197394085e-06 -5.22577116213106e-21 -2.42262712973724e-06)
(3.95980850756743e-06 -2.34176642377606e-06 1.10189097318082e-20 -1.48753123040177e-06 -4.02336327867212e-21 -2.47153574228949e-06)
(3.2103983746921e-06 -1.39388707753543e-06 6.46690825857513e-21 -1.36485442145651e-06 -2.27711716105684e-21 -1.84499040076012e-06)
(1.75898147603471e-06 -4.95390611196529e-07 -1.69752223683867e-20 -8.09274099134913e-07 -2.69157410892772e-20 -9.49422521657773e-07)
(6.87092582790351e-07 -1.00824599009704e-07 1.42746382556123e-19 -3.29120213505223e-07 -3.18226333613765e-20 -3.5786499904839e-07)
(3.80403629049975e-07 -2.23631956264301e-08 1.12867944009911e-19 -1.85118369593406e-07 8.93951223451058e-21 -1.95226685593505e-07)
(6.8671692038344e-07 -3.42197465721615e-08 -1.36214805514314e-21 -3.35648564062418e-07 1.9014127755541e-20 -3.50963056874016e-07)
(1.61147141071021e-06 -7.04177636675043e-08 7.60156383079384e-30 -7.88584574940125e-07 -9.26626755337296e-29 -8.22640019082688e-07)
(2.72195424989562e-06 -7.93939507599363e-08 4.23581864758475e-21 -1.33367823532564e-06 -4.14135634797809e-20 -1.38785961504551e-06)
(3.07131027059779e-06 -5.15691495875861e-08 3.24297289885748e-19 -1.50627600164435e-06 -4.84725890439669e-20 -1.56456485255603e-06)
(1.67454031458675e-06 3.53021685998397e-09 1.9130436536725e-19 -8.21566167047754e-07 3.44549782019497e-20 -8.52718306462946e-07)
(6.2265343882645e-09 -9.63442561242887e-10 -4.8464099549842e-21 8.60162554746285e-10 -6.53817585406494e-22 -7.08457135904467e-09)
(4.54368992294489e-06 -2.96280741133817e-07 2.53480415296608e-23 -2.21434686851098e-06 -1.73964081503144e-24 -2.32864439125022e-06)
(2.12079867448138e-05 -8.32352219711067e-07 4.65410161904961e-23 -1.037859170282e-05 -1.86007716418151e-24 -1.0826146873115e-05)
(4.84521885994702e-05 -1.27689586487412e-06 -6.27552921305175e-23 -2.37371234990657e-05 3.45835773867261e-24 -2.47076520634817e-05)
(8.0449671140448e-05 -1.46887022757428e-06 1.37196348037564e-20 -3.94293641793128e-05 -1.85426097616636e-19 -4.10080033297731e-05)
(0.000112311004138722 -1.46702716620145e-06 -1.07051089237678e-18 -5.50546982907469e-05 -2.02608843567314e-19 -5.72391323909119e-05)
(0.000141587427964903 -1.37245647308463e-06 -1.3940367608286e-18 -6.94116821863421e-05 2.57696576221884e-19 -7.21540973845062e-05)
(0.000167512614940165 -1.25402838321604e-06 -2.2462239812911e-20 -8.21246874486271e-05 2.63367298881098e-19 -8.53623162355415e-05)
(0.000190155978389822 -1.1421435784077e-06 1.9906502889802e-23 -9.32279755451644e-05 -6.57945023815215e-24 -9.68989302583213e-05)
(0.000209860188581818 -1.0465654682966e-06 -6.89231929642717e-23 -0.000102889752678836 2.49989302623409e-25 -0.000106938351189154)
(0.000227004325222764 -9.66770192023036e-07 1.20212529175255e-22 -0.000111296021161389 -4.18739520000219e-25 -0.000115673598511267)
(0.000241904152090952 -8.99347186301195e-07 -2.22133157600893e-23 -0.000118601687019929 -3.49777460012522e-24 -0.00012326548172817)
(0.000254794657173193 -8.39392591786184e-07 -2.00788740284214e-20 -0.00012492203346105 3.09170724836717e-19 -0.000129833669715828)
(0.000265841397974495 -7.84022037308597e-07 2.01532784254671e-18 -0.000130338298077477 3.14011400470127e-19 -0.000135462457095609)
(0.00027517103699263 -7.31358010632316e-07 2.16983970752246e-18 -0.000134912612706022 -3.23556688653551e-19 -0.000140216355173144)
(0.000282874640651743 -6.79301773009435e-07 1.85166747008142e-20 -0.000138689640457709 -3.26727004293679e-19 -0.000144141753343346)
(0.000289012254731394 -6.26390586939187e-07 -3.88254486956818e-23 -0.000141698832769243 -1.82793145504924e-24 -0.0001472692367726)
(0.000293624688972411 -5.7150191777526e-07 6.61986996372525e-23 -0.00014396021167794 -2.02625014773559e-24 -0.000149619586929356)
(0.000296744424227129 -5.14380807206591e-07 -1.22875670062917e-20 -0.00014548970884081 3.20850492611509e-19 -0.000151209348045171)
(0.000298402796626435 -4.53894645842805e-07 2.10944994973596e-18 -0.000146302682828919 3.24426592768975e-19 -0.000152054492887559)
(0.000298606794317412 -3.88337102962428e-07 2.17787679016289e-18 -0.000146402562370413 -3.21030354491925e-19 -0.000152158579807842)
(0.000297347169638628 -3.17520378908872e-07 9.48226877843984e-21 -0.000145784835806113 -3.23447426179304e-19 -0.000151516874224288)
(0.000294643785615822 -2.43550107789105e-07 1.16402464665297e-25 -0.000144459247556244 -9.66335929160919e-25 -0.000150139491707431)
(0.000290533194330507 -1.66879328669846e-07 9.04573257298387e-26 -0.000142443714708409 4.92642195154949e-25 -0.000148045061661804)
(0.000285058850258118 -8.86318140774778e-08 -3.49988647025422e-24 -0.000139759541259292 -7.31051183067697e-25 -0.000145255727922342)
(0.000278278707907505 -9.08024514718673e-09 -1.15161950432859e-23 -0.000136435135585921 -2.44436552262758e-25 -0.000141801027758799)
(0.000270250468200643 7.11684218557969e-08 1.55772303530697e-24 -0.000132498793513756 7.16898935391482e-25 -0.000137710357447929)
(0.000261045999863835 1.50996349573856e-07 3.38648774494043e-24 -0.000127985749635279 -7.18688920831721e-25 -0.000133020340135505)
(0.000250746479921543 2.29814506191823e-07 -1.31267869992292e-23 -0.000122935806341222 4.61223859741994e-25 -0.000127772338045355)
(0.000239444767513804 3.06117209782935e-07 -3.79512124689593e-24 -0.000117394492227717 4.62161300127642e-25 -0.000122013667525054)
(0.000227246806543743 3.79234740120411e-07 1.31561842252166e-23 -0.000111413748926307 -4.31634801682612e-25 -0.000115798314648744)
(0.000214268181407033 4.47739218243108e-07 1.94106686302739e-26 -0.000105050252612039 9.26668007949901e-25 -0.000109185169968121)
(0.000200639286230686 5.10465788500974e-07 1.84286490365425e-23 -9.8367932918128e-05 -8.51133663041836e-25 -0.000102240678041619)
(0.000186499088198066 5.66376303861422e-07 -1.79090391839581e-23 -9.14349263927781e-05 -9.21619202924086e-25 -9.50356482594552e-05)
(0.000171996384655735 6.14283828844185e-07 2.40751033369201e-26 -8.43241909713983e-05 8.34897136536482e-25 -8.76458972855111e-05)
(0.000157288422657695 6.53215683176644e-07 0 -7.71128261700529e-05 0 -8.01515486182694e-05)
(0.000142538109122297 6.82320266835782e-07 0 -6.98807081932401e-05 0 -7.26356080673509e-05)
(0.000127911384748592 7.00917495344715e-07 0 -6.27092004858069e-05 0 -6.51826275188546e-05)
(0.000113573963152173 7.086181620202e-07 -1.27158218454993e-20 -5.56795564257177e-05 -2.52635485983941e-19 -5.7877041877407e-05)
(9.96880447028573e-05 7.05204327047018e-07 -1.25242005024161e-18 -4.88713081657897e-05 -4.90184495948381e-19 -5.0801494564501e-05)
(8.64085805811e-05 6.9083441788557e-07 -2.18360303207674e-18 -4.2360432767821e-05 -2.5185909008068e-20 -4.40349360112955e-05)
(7.38780541406984e-05 6.66038749539485e-07 -9.28020863571725e-19 -3.62167945072667e-05 4.05399137728369e-19 -3.76499635147655e-05)
(6.22215192080301e-05 6.31688534340602e-07 1.17425796647714e-20 -3.05017079692525e-05 1.93063285462207e-19 -3.17102971982141e-05)
(5.15401613928957e-05 5.89236826532888e-07 -4.49055372919283e-23 -2.52647816048697e-05 -2.5392510539905e-24 -2.62674987502971e-05)
(4.19078929414886e-05 5.40252048238389e-07 7.95842132534518e-24 -2.05422543552377e-05 1.7803173175178e-26 -2.1359230176357e-05)
(3.33718609308083e-05 4.8643025556364e-07 -1.17682035152667e-20 -1.63572464919708e-05 -1.57404359476987e-19 -1.70095110751786e-05)
(2.59553755095721e-05 4.29192446691626e-07 -4.61958989907441e-19 -1.27211908717272e-05 -1.47205522797972e-19 -1.32302151763459e-05)
(1.96539963089326e-05 3.70592744618566e-07 -2.94147028514084e-19 -9.63191248025658e-06 1.15484677908686e-19 -1.00190778047322e-05)
(1.44401863070253e-05 3.11940647132853e-07 7.96971202065091e-21 -7.07591528061596e-06 1.04599759793607e-19 -7.36206218686929e-06)
(1.02545693120439e-05 2.55705840038232e-07 -2.26447665529138e-23 -5.02408126171635e-06 6.6290666782289e-25 -5.22891921767901e-06)
(7.02056176487873e-06 2.0300236921214e-07 2.11392574209575e-24 -3.43886678853608e-06 2.91518135225813e-26 -3.58062068270848e-06)
(4.62622850246013e-06 1.56397131086838e-07 1.47770612670199e-23 -2.26537290306205e-06 4.87926690945063e-25 -2.36014748434128e-06)
(2.95786309440588e-06 1.16085415592741e-07 5.12165920672464e-23 -1.44786769999536e-06 -2.02435613546878e-25 -1.5095424863738e-06)
(1.86577052312596e-06 8.42153060105771e-08 -6.25572471205732e-23 -9.12917172218439e-07 -2.32537002687426e-24 -9.52567552062022e-07)
(1.23212944902714e-06 5.98553376975669e-08 1.72047061070941e-23 -6.02766059152471e-07 3.14454320748181e-24 -6.29174618611963e-07)
(9.16499475486169e-07 4.47095480714377e-08 1.46173484296303e-23 -4.48459415126532e-07 -1.63183101212716e-24 -4.67899676418316e-07)
(8.83579080281267e-07 3.44889605153679e-08 -4.6212220930437e-23 -4.32725155101945e-07 -1.94370144856772e-24 -4.50718696047594e-07)
(1.08334974292302e-06 3.07140013784169e-08 3.48064098713413e-25 -5.30924407309555e-07 1.58777913551624e-24 -5.52259641151673e-07)
(1.72765048074231e-06 2.83208182655203e-08 -2.40846508341359e-23 -8.44590826503675e-07 -9.5428720727189e-26 -8.82794789315344e-07)
(3.18845364203269e-06 1.93052630920142e-07 -9.52064787861587e-26 -1.54821106145775e-06 -1.39624604125997e-24 -1.63975060619565e-06)
(2.41466925304788e-06 5.15614199525803e-07 -1.02895700403342e-22 -1.13319287778115e-06 3.04142715095888e-22 -1.28109200922736e-06)
(8.81122298980103e-07 2.87369013863057e-07 3.79371751735926e-21 -3.94439697922681e-07 8.94793191267228e-22 -4.86536625472222e-07)
(6.85887369593286e-08 2.57617005197718e-08 -1.1391936697557e-21 -2.96169635380251e-08 -3.39040033618629e-22 -3.89600842271159e-08)
(2.38140224806149e-07 1.73439844221459e-07 -7.73909963584708e-21 -7.88946626092037e-08 -3.18681855472782e-21 -1.59197798081109e-07)
(1.42881761501627e-06 1.19426560662606e-06 -9.69144759582489e-21 -3.99200772942516e-07 -3.60445760062202e-21 -1.02930801878579e-06)
(3.60797833487538e-06 3.53799461837596e-06 1.29170035699901e-20 -7.57986113938712e-07 7.02962861769453e-21 -2.84913739423573e-06)
(6.92999147893396e-06 7.82436742479154e-06 -1.63119210841541e-20 -9.29080532971408e-07 -9.90886460020047e-21 -5.99911103266142e-06)
(1.11311594967909e-05 1.41074063316833e-05 -2.61631828972346e-21 -6.57844576446894e-07 3.02041759113075e-22 -1.04701735541411e-05)
(1.58717202184441e-05 2.19252741823202e-05 2.24427704585939e-20 8.2940255566879e-08 1.43594182949549e-20 -1.5949875032957e-05)
(2.09225818953025e-05 3.06954850513976e-05 -2.0817631851095e-20 1.14641591299786e-06 -1.63042051713573e-20 -2.2062378432833e-05)
(2.62805182142216e-05 3.99131914028714e-05 1.47481653716337e-21 2.2363616526646e-06 -3.47995814900553e-23 -2.85083265135968e-05)
(3.1077138672154e-05 4.80004789042816e-05 -2.16570056369611e-20 3.12334211237283e-06 -1.72496494123263e-20 -3.419022269191e-05)
(3.46042426642623e-05 5.42531661811617e-05 8.50060678500796e-22 3.96508800915632e-06 8.35484062587652e-22 -3.85577621879137e-05)
(3.73893365456288e-05 5.98345787383199e-05 1.05556799936363e-21 5.02130079961078e-06 1.00129186087678e-21 -4.23979166981654e-05)
(3.99295482147279e-05 6.56503885059127e-05 1.20411742386097e-21 6.43001220019089e-06 1.12984245486428e-21 -4.63456553278117e-05)
(4.26876859356081e-05 7.25084242950295e-05 -2.11994413889048e-20 8.30025565860831e-06 -1.49982111754982e-20 -5.09726482704029e-05)
(4.66052846834238e-05 8.20672488173052e-05 -3.44854355264163e-21 1.08489865356376e-05 -1.36410771937381e-21 -5.74370383842626e-05)
(5.49815641985464e-05 9.87411537548417e-05 -1.70052569487359e-20 1.39570608741392e-05 -1.51941723836774e-20 -6.89179476206542e-05)
(7.16125574520875e-05 0.000124641913802967 -1.60897515195733e-20 1.56420906369422e-05 -1.29551801187207e-20 -8.7228476928835e-05)
(0.000100700088456554 0.000160125303532035 1.47196343319835e-20 1.26273682728203e-05 1.23236995675886e-20 -0.000113293465290643)
(0.000155505140552345 0.000211470238626932 1.58050792180291e-21 -1.7313807721598e-06 -4.21368514258382e-23 -0.000153727636876832)
(0.000256471485812193 0.000276047844044167 -3.54342459665728e-20 -4.27782998794155e-05 -2.17266529813347e-20 -0.000213629090796025)
(0.000406934309431389 0.00030761321855218 1.84080835419891e-20 -0.000129381541702268 9.30935859543523e-21 -0.000277469518548639)
(0.000386293883818908 0.000173145121374742 8.21926162474272e-22 -0.000164916133296894 2.20911198916515e-22 -0.000221311350476866)
(0.000133933728538281 2.98022384884335e-05 7.12539719590807e-23 -6.36760116425326e-05 -1.41153980435018e-22 -7.02366437952999e-05)
(3.53956175151311e-06 6.61783955832965e-07 -1.42192462556351e-22 -1.68400939900432e-06 -2.45969674506434e-23 -1.85499579811392e-06)
(6.95823568694165e-06 -1.22462562241838e-07 -1.45072798653579e-25 -3.40852286147144e-06 -4.86787422322164e-24 -3.54864812456275e-06)
(5.75387792578037e-05 -1.64938071444534e-06 1.89326338367767e-24 -2.82486388898359e-05 -6.19324363983821e-26 -2.92813550829145e-05)
(7.24010376702203e-05 -5.25827094064233e-06 9.27710769233905e-21 -3.50873478784486e-05 -5.22974911009847e-22 -3.73024979232079e-05)
(6.95964281219289e-06 5.13152970961032e-07 4.37481699111281e-20 -3.16870326626524e-06 3.29610994360874e-19 -3.78980249147476e-06)
(2.67209357061423e-05 -1.33661558133743e-05 1.96519179132387e-17 -1.12803639159298e-05 -6.9795524286223e-18 -1.54359405449245e-05)
(3.60893471762175e-05 -2.88516027625389e-05 2.39682837110027e-17 -1.1200262997393e-05 -1.03602022786979e-17 -2.48816189466174e-05)
(2.09780615368751e-05 -2.40444418460672e-05 7.37117600356298e-19 -2.89790545612264e-06 1.30742449324134e-19 -1.80747331185207e-05)
(1.09707297760108e-05 -1.61517953046067e-05 -2.90189575979703e-20 5.31281393430207e-07 2.08597137716381e-20 -1.14985612560728e-05)
(6.75640049281285e-06 -1.14860366051861e-05 -5.72299098771749e-19 1.27895047500753e-06 2.63551549699005e-20 -8.03294084455468e-06)
(4.74615360919309e-06 -8.85675779857838e-06 -7.21800204045741e-18 1.40256553951839e-06 5.48748650027811e-18 -6.14687490181624e-06)
(4.54520688908784e-06 -8.73880617189528e-06 -6.60239534602361e-18 1.51970395268234e-06 5.93861061729346e-18 -6.06309173233953e-06)
(5.31237375754067e-06 -1.00041942005815e-05 7.31513631406269e-19 1.65262418582323e-06 -8.9738330514526e-20 -6.96290886179721e-06)
(7.2272253720763e-06 -1.31582727750064e-05 6.94326847220636e-24 1.96621760652946e-06 -5.67990072804766e-24 -9.19068549720846e-06)
(9.84065045200143e-06 -1.72637057097004e-05 4.88642146892306e-21 2.26913981550553e-06 -3.32784199420384e-22 -1.21061580568688e-05)
(1.25361436484017e-05 -2.1142355704764e-05 -1.44961453359095e-19 2.36388509055131e-06 1.05801194263505e-19 -1.48955596241543e-05)
(1.41171828258009e-05 -2.27341610606177e-05 -7.96392258815213e-20 2.00561299629009e-06 5.59760140747667e-20 -1.61179599505187e-05)
(1.33337113187066e-05 -2.01842849644043e-05 6.08559381766805e-21 1.13005473710392e-06 1.49492007211972e-22 -1.44594277936463e-05)
(9.93550646907433e-06 -1.34250116907544e-05 -6.02190973321947e-20 -6.96469546328869e-08 4.47110223450259e-20 -9.86290034842031e-06)
(5.13539901383774e-06 -5.3509907623196e-06 1.02191991019179e-19 -8.41691461401125e-07 -5.03379613574639e-20 -4.29241969774182e-06)
(9.80391591889541e-07 -2.49783442236469e-07 -2.19805329566722e-20 -3.41141270722688e-07 -1.49345636360112e-21 -6.39058584417854e-07)
(2.63138864436766e-07 -1.84625420854683e-06 1.54107608893521e-20 1.26045758505349e-06 -3.04569785729836e-20 -1.52313946195291e-06)
(6.4588349983225e-06 -1.15560400495447e-05 -6.72494982960252e-20 1.94657141686079e-06 6.79373737648685e-20 -8.40288529748229e-06)
(2.21923576387818e-05 -2.65306983660096e-05 3.38647976302551e-20 -1.67161752656843e-06 1.35761081201431e-21 -2.05145851211779e-05)
(4.57412456692718e-05 -3.95385177616061e-05 -2.09450373721796e-19 -1.14035295299343e-05 9.34659487885485e-20 -3.43274168843467e-05)
(6.7226996353405e-05 -4.16592814912647e-05 -2.64696617158451e-19 -2.37872546288348e-05 9.1805399919146e-20 -4.34267124079162e-05)
(7.21945031214704e-05 -3.01631851458261e-05 3.40282872506439e-22 -3.02797746477518e-05 -1.02624990876848e-20 -4.19021565695572e-05)
(5.48847846171351e-05 -1.33367257680521e-05 6.73329824624098e-19 -2.51280554663249e-05 1.2933323728938e-18 -2.97478039171117e-05)
(2.96556315505233e-05 -3.24273946693805e-06 1.48186225948946e-17 -1.41057847128861e-05 4.52634061563901e-19 -1.55451828163901e-05)
(1.57043093508538e-05 -8.35926621645093e-07 1.12379389455179e-17 -7.61937906659988e-06 -1.11694024591556e-18 -8.08250529016741e-06)
(1.39054918031399e-05 -1.40013514865871e-06 -2.13687677789564e-20 -6.7408291760376e-06 -7.38895170332971e-19 -7.16251365810796e-06)
(1.46922177025738e-05 -1.66803537570324e-06 3.56986610916129e-28 -7.06967618298444e-06 4.83072579329949e-27 -7.6202552143945e-06)
(1.05665809593553e-05 -5.61401626416584e-07 -1.23253859723743e-20 -5.12232277654184e-06 6.90549880906875e-19 -5.44262523194883e-06)
(4.81997194412544e-07 2.86232659587933e-07 1.8916671431942e-18 -9.97237076433621e-08 1.44639001095289e-18 -3.82158827654973e-07)
(3.58585673938932e-05 -8.62184072521106e-06 -1.75523221958284e-17 -1.64388199182229e-05 5.48335855186181e-18 -1.94139227163795e-05)
(0.000258948198876083 -3.90502088931406e-05 4.38653165610633e-19 -0.00012371615873781 3.05407790801382e-18 -0.000135191478638531)
(0.000698136392164464 -7.69720090483154e-05 8.11555595509808e-23 -0.000337355027630827 2.69500061719258e-22 -0.00036067315176683)
(0.00121694579275494 -9.82551223702905e-05 5.87749396527562e-23 -0.0005915407014972 -1.98295287556854e-22 -0.000625217507247165)
(0.00169239820234932 -9.88869509106321e-05 -6.7422558250202e-23 -0.000825493105809192 -1.06084990705391e-22 -0.000866645077015074)
(0.00208195113613415 -8.80443291446693e-05 -1.01841168449934e-19 -0.00101755602988402 3.87176915728387e-18 -0.00106407585156918)
(0.00238692785746747 -7.40888151845985e-05 1.07367812198375e-16 -0.0011679988926193 5.66138353225193e-19 -0.00121856335927983)
(0.00262145867523947 -6.09340104601662e-05 1.11725129853152e-16 -0.00128366912220252 -6.97325955144332e-18 -0.00133738829642236)
(0.00280008157749534 -4.97827680012256e-05 2.71408471991789e-19 -0.00137172441342576 -4.2729158002367e-18 -0.00142792874260466)
(0.0029348024153245 -4.06454314546898e-05 -8.57828720358776e-22 -0.00143810351370273 1.13674733791358e-23 -0.00149624998173526)
(0.00303459344982373 -3.3171565842218e-05 1.33573874063353e-21 -0.00148725193896162 8.34821146047479e-23 -0.00154687740123078)
(0.00310596187268799 -2.69578457737531e-05 -1.31694441196007e-21 -0.00152239412361256 6.08668663539293e-23 -0.00158309277374577)
(0.0031535272608789 -2.16696923364797e-05 8.91599618105358e-22 -0.00154581812750864 -1.51005085505302e-22 -0.0016072269170735)
(0.00318063579773273 -1.70508818563969e-05 2.40391320955024e-19 -0.0015591805627007 -4.16353885578996e-18 -0.00162096889572938)
(0.00318964590156274 -1.29406269145996e-05 -1.19159270131227e-16 -0.00156364861348421 -3.64995963910065e-18 -0.00162550958643244)
(0.00318227785761475 -9.22682248318201e-06 -1.20168723114066e-16 -0.00156007163769859 4.52749763360992e-18 -0.0016217196553631)
(0.00315985509759541 -5.81883544901649e-06 -2.25945708882693e-19 -0.00154910220616937 4.13126091663371e-18 -0.00161026976218446)
(0.00312338349188362 -2.65656877397517e-06 6.6543204975072e-22 -0.00153123636785034 7.04299700157038e-23 -0.00159166957540579)
(0.00307365189994187 2.99452213960949e-07 -6.51829236604584e-22 -0.0015068630302272 -2.29424437836516e-23 -0.00156631892704229)
(0.00301129382510359 3.06867505293866e-06 1.57927860143905e-19 -0.00147629351796367 -3.93573419577946e-18 -0.00153453989912938)
(0.00293692211843049 5.67425406263064e-06 -1.1253351389772e-16 -0.00143982795380092 -4.1313548509568e-18 -0.00149664512618787)
(0.00285041861058209 8.13191305210529e-06 -1.12440842704603e-16 -0.00139740959569995 3.5349781489679e-18 -0.00145257319934078)
(0.0027525675560141 1.04329010570221e-05 -1.34888704441156e-19 -0.00134942550142561 3.81601499466666e-18 -0.00140272119614381)
(0.00264517759729791 1.25564884533227e-05 1.19946759748572e-24 -0.00129676286386161 -1.13088324150033e-23 -0.00134801028990497)
(0.00252852208426044 1.44984846911273e-05 1.14810564405979e-24 -0.00123955511169977 -1.14521996531551e-23 -0.00128858035979145)
(0.00240203294166921 1.62350884061256e-05 -2.76555217692414e-22 -0.00117752373181512 7.63254937190368e-25 -0.00122414193054699)
(0.00226855043326879 1.7773212614644e-05 2.34060829105234e-22 -0.00111206110307969 9.92955746035946e-24 -0.00115614245276552)
(0.00212896874079721 1.91036426488787e-05 -7.77596986550118e-23 -0.00104360619922153 -6.59413513509013e-25 -0.00108503699792194)
(0.00198433576491895 2.02134574542459e-05 1.85852498272926e-24 -0.000972672981011682 -1.26231084719925e-26 -0.00101135934575972)
(0.00183580016716228 2.10966888409422e-05 1.4499569767725e-22 -0.000899824949463401 -1.1712535998337e-23 -0.000935694481280854)
(0.00168460256053173 2.17375941306173e-05 -2.49460157169114e-22 -0.000825670715189098 9.56328758764545e-24 -0.000858674217314633)
(0.00153207435735566 2.21322795488475e-05 5.92011573295834e-24 -0.000750863303110389 1.01388008380268e-23 -0.000780976737792285)
(0.00137962607159912 2.22692354762611e-05 9.37941284631046e-23 -0.000676094905487765 -7.99586374673421e-24 -0.000703320148964952)
(0.0012287302719158 2.21436557322266e-05 -2.57974338400766e-22 -0.00060208780553948 -4.73837020943493e-24 -0.000626454511227436)
(0.00108089968252817 2.17548031978457e-05 4.19248827386849e-22 -0.00052958419516142 8.64481753117427e-24 -0.000551150125792857)
(0.000937661621212407 2.11029096465618e-05 -1.65109091980749e-22 -0.000459333535141446 -3.8258952336485e-24 -0.000478184616339086)
(0.000800528748389091 2.01941609112681e-05 1.57857545322648e-22 -0.000392078033317329 4.11953301005061e-24 -0.000408328204359383)
(0.00067096289327638 1.90399212798882e-05 1.3922553109691e-24 -0.000328535050141321 4.10605605876791e-26 -0.000342325135323681)
(0.00055033548133769 1.76571992742804e-05 1.39739232986225e-22 -0.000269377623173054 -2.56522688296045e-23 -0.000280873587661287)
(0.000439889764365802 1.6069596146732e-05 -4.78835235444552e-20 -0.00021521597036977 2.31853448775328e-18 -0.000224606405335565)
(0.000340700341214269 1.43063081844873e-05 5.35179542750187e-17 -0.000166577613038667 6.62813352676206e-18 -0.000174070501802424)
(0.000253635428469798 1.24038959954511e-05 9.43021033899153e-17 -0.000123888740413951 5.03679871380308e-18 -0.000129707771832675)
(0.000179322033653682 1.04059310712467e-05 4.05539539294762e-17 -8.74571229283004e-05 -5.94536989183827e-19 -9.18373567629568e-05)
(0.000118118513528233 8.36122932236009e-06 1.15196744076099e-19 -5.74585616899433e-05 -1.30693149524734e-18 -6.06417574916072e-05)
(7.01023115326363e-05 6.32339892377625e-06 4.29422179924079e-22 -3.39309121436453e-05 2.83131291943023e-24 -3.61605501390242e-05)
(3.50707664574988e-05 4.34575624510979e-06 -1.39772434167565e-22 -1.67747769585137e-05 -2.92761329142447e-23 -1.82905017996753e-05)
(1.25363563806637e-05 2.48148012395772e-06 -1.99941632906909e-19 -5.75113125028017e-06 5.12121562435414e-19 -6.78318996987648e-06)
(1.72142100359838e-06 7.83859386034335e-07 3.64484074883143e-18 -4.78675698209686e-07 2.68935413977861e-18 -1.24237255634688e-06)
(1.54803512843316e-06 -6.91386489454671e-07 -3.46477286344828e-18 -4.28449315039843e-07 2.5426363096463e-18 -1.11925000481102e-06)
(1.06368422624571e-05 -1.88696527410802e-06 2.81244361248609e-19 -4.92383507633903e-06 4.7670467240771e-19 -5.71129362667413e-06)
(2.73089674394295e-05 -2.74896345560711e-06 -2.07412738559779e-23 -1.31403710615156e-05 1.45334639648867e-23 -1.41643466489463e-05)
(4.95486484312976e-05 -3.21305469592314e-06 6.02246420959664e-22 -2.40891093310439e-05 -7.58579591069038e-23 -2.54519027657905e-05)
(7.51097002850311e-05 -3.23064710972047e-06 -7.53938503441803e-22 -3.6665961580373e-05 -3.69863323696086e-23 -3.84322078892098e-05)
(0.000101245951401258 -2.72940540875278e-06 8.58958276530392e-22 -4.95219908091379e-05 6.15631453364836e-23 -5.17084465067593e-05)
(0.000125178611826584 -1.72215903354665e-06 -2.38507679291399e-21 -6.12879238265064e-05 9.88897770088481e-23 -6.38715246263521e-05)
(0.000143428535452289 -1.5376199511155e-07 1.57653017767801e-21 -7.02543499310805e-05 -6.77997277695932e-23 -7.31522376551251e-05)
(0.000153242068783482 1.76383269743761e-06 1.69940366517192e-21 -7.50580651021849e-05 7.54324061557874e-23 -7.81605531702951e-05)
(0.000150579118600606 4.05915340449349e-06 -2.76421863061697e-21 -7.37128152306491e-05 -5.63985935494354e-23 -7.68432480900021e-05)
(0.000134349282200551 5.98912611369311e-06 3.31354278092297e-25 -6.56680952559302e-05 1.93687168355117e-24 -6.86605867085845e-05)
(0.000102708728356427 7.18354083184172e-06 3.84539013399945e-23 -5.02186523534437e-05 2.72799079438259e-24 -5.24743321289577e-05)
(7.03472508227285e-05 7.61202034998305e-06 1.61791442703463e-20 -3.46658902637521e-05 1.22012252810382e-21 -3.56706582912622e-05)
(7.99290844579785e-05 9.53560648597261e-06 1.30560236366698e-19 -3.92881624791059e-05 7.88348698297166e-21 -4.06287321402467e-05)
(0.000106120442914787 2.31038373626137e-05 2.37299412079566e-19 -5.03255616771831e-05 4.1972163842397e-20 -5.57781461202563e-05)
(0.000141744231474651 4.73940268701988e-05 -1.24403275250087e-19 -6.36530490327123e-05 -5.44762623998776e-20 -7.80677597717398e-05)
(0.000180899797944812 8.52138517443647e-05 5.80484630110434e-19 -7.4406207608805e-05 1.4426823670992e-19 -0.000106461648647244)
(0.000221591227606015 0.000137054411470936 5.89608085001908e-19 -7.99351303592447e-05 2.49550692532332e-19 -0.000141613608915263)
(0.000262867616218557 0.000204579767524847 -6.26422174437777e-19 -7.77644710425949e-05 -2.77334448073117e-19 -0.000185047625336377)
(0.000305558246518428 0.000290958121255123 6.5819615397304e-19 -6.59838854063514e-05 3.11168642589181e-19 -0.00023950250317533)
(0.000349290633406955 0.000395315152221712 -6.33567995813423e-19 -4.38863493339481e-05 -3.76429337031131e-19 -0.000305312681108378)
(0.000395909716930987 0.000513965810238419 -6.01211090486829e-19 -1.43896198966822e-05 -3.90918218915022e-19 -0.000381405663891823)
(0.000445950998017401 0.000642113450006481 3.29152458506372e-19 1.9164072085375e-05 2.32975523378987e-19 -0.000464975563483069)
(0.000502158579095661 0.000775941183187913 -4.01013104072158e-19 5.19068967674172e-05 -2.61527324021116e-19 -0.0005538992894576)
(0.000562169031888026 0.000904888307426489 5.19069402243577e-19 7.93431469352086e-05 4.22633306787175e-19 -0.000641319763652622)