/*--------------------------------*- C++ -*----------------------------------*\
  =========                 |
  \\      /  F ield         | OpenFOAM: The Open Source CFD Toolbox
   \\    /   O peration     | Website:  https://openfoam.org
    \\  /    A nd           | Version:  7
     \\/     M anipulation  |
\*---------------------------------------------------------------------------*/
FoamFile
{
    version     2.0;
    format      ascii;
    class       volScalarField;
    location    "1000";
    object      epsilon;
}
// * * * * * * * * * * * * * * * * * * * * * * * * * * * * * * * * * * * * * //

dimensions      [0 2 -3 0 0 0 0];

internalField   nonuniform List<scalar> 
15600
(
0.0307511876502602
0.0340789384918302
0.0161841314700562
0.00469674371368813
0.000470183057785107
0.000336890682015065
0.000414806185438355
0.000385034732966292
0.000369320558356699
0.000396913722973278
0.000463474540009447
0.000588816318485142
0.000790979302057409
0.0010801331013281
0.00146869572509229
0.00194397683735228
0.00243730492377578
0.00283472969922255
0.00306225402962595
0.00305067920621928
0.00277992602323854
0.0023007843059367
0.00171927569300214
0.0011304846784938
0.000665108770227682
0.000355417541248016
0.000192965337170517
0.000143517265146096
0.000263812904111597
0.000577261087751355
0.000799160149226699
0.00105729203852179
0.00179965116807578
0.00329351880547434
0.0055229057281314
0.00840701949263711
0.0117701972503525
0.0153084782346095
0.0187398491800792
0.0218996851808133
0.0247240938937298
0.0272112647235948
0.0293858629152142
0.0312809857842119
0.0329287685201403
0.0343578205038134
0.0355915780781537
0.0366512446710752
0.0375570343668069
0.0383276783951946
0.0389818874949059
0.0395400975578399
0.0400254556230648
0.0404522962603106
0.0408040039889585
0.0410639503569323
0.0412365819672768
0.0413156566022269
0.0413338484051508
0.0412931044838306
0.0411969121444344
0.0410478812863845
0.0408471427774086
0.0405957439368057
0.0402931638762453
0.0399387908796803
0.0395314052999608
0.0390688590467246
0.0385487130250102
0.0379683045922498
0.0373248992279097
0.0366158264671184
0.0358386339547315
0.0349916071618668
0.0340741628494628
0.0330867248589269
0.0320303108028338
0.0309047846781385
0.0297088854465651
0.028440445808056
0.0270987901395685
0.0256817721180102
0.0241911306820697
0.0226235268054949
0.0209832285685924
0.0192671051722401
0.017486636786646
0.0156376449347636
0.0137470693070538
0.0118884650685137
0.0100929346792784
0.00822995236504421
0.00744477460420316
0.00879877496872367
0.0101152028241026
0.0115525700540175
0.0129558419697333
0.0144858254583998
0.016362907082466
0.0185264379544448
0.0204762273071737
0.0221648940944819
0.0235937255142544
0.0247256715765072
0.0252404013622828
0.0257375327948336
0.026637407852403
0.0280697303610551
0.0302512439025458
0.0338376148170113
0.0397430072301609
0.0468495996758217
0.0554965985494398
0.0670881392633333
0.0805860646115226
0.0777626758915986
0.0486032519647195
0.0264860099815209
0.0145274660810911
0.0163919816441745
0.168680205961793
0.187388264435614
0.0893353436975461
0.0264218041799063
0.00287210974130644
0.00185004784664458
0.00226681833285079
0.00211760312462532
0.00202549373466982
0.00216573307502116
0.00252182038704753
0.00319744287797426
0.00428875966855662
0.00584603426534104
0.00792365315907109
0.0105061781519407
0.0132250126469878
0.0154465340373671
0.0167511977358962
0.0167474885615911
0.0153053449133534
0.0126841399293249
0.00946379575547958
0.00629325908065182
0.00375794625511304
0.00201299502806432
0.00107570604199005
0.000787609788081777
0.00147661651490129
0.00320561285014507
0.00439537614495166
0.00581722549758465
0.0101907023839012
0.0194684713059905
0.0338944786105728
0.0523480169230439
0.0727320072031884
0.0928148419435894
0.111214849682921
0.127447671678561
0.141518617598701
0.153624020559824
0.163996626514771
0.172851059778455
0.180368512466972
0.186699260377606
0.191969907654153
0.196295042961795
0.199780475346353
0.2025250793439
0.204627657758438
0.206194476003943
0.207344435710315
0.208196465315634
0.208691820095459
0.208719471871641
0.208337173870418
0.207633030964099
0.206641406041811
0.205387453141708
0.2038988208876
0.202198168289531
0.200302037779768
0.198224763998138
0.195974119230942
0.193556168022676
0.190973175917253
0.18822257151374
0.185299125860215
0.182195173050473
0.178901045114262
0.17540547228411
0.17169613901509
0.167761568381891
0.163592547355798
0.159181614068889
0.154521212082988
0.149597351328369
0.144389711325529
0.138872859969222
0.133025109235916
0.126817511917133
0.120234776236575
0.113240226031327
0.105825419802672
0.0979512129896661
0.0896399360364699
0.0808474230093284
0.0716696925041967
0.0624975755668888
0.0537594857671032
0.044556643121839
0.0402065085708826
0.0468046925997932
0.0536290894574656
0.0611337876853473
0.0685965450658266
0.0768829675770861
0.0870918320305455
0.0988777425914455
0.109740809378988
0.119448052738838
0.127932908604342
0.134903522466629
0.138628700533504
0.142407622493359
0.148408050216034
0.157354611117013
0.170661570130158
0.192243705617798
0.227162800168905
0.269184371195086
0.321291135646048
0.390934063866767
0.470479403201269
0.469119656511177
0.355794012065765
0.204094010587498
0.0991043179009086
0.0939182283010893
0.425499741758607
0.433065348296856
0.217540798595993
0.0654850705136407
0.00779718049803092
0.00443589859197419
0.00540750554977769
0.00509302681357048
0.0048811649702658
0.00520720300411933
0.00604006389515262
0.0076190783721445
0.0101583803740912
0.0137385499422692
0.0184135847339994
0.0239451489234645
0.0293997187883204
0.0334678076809985
0.0354509180853553
0.0348917371055632
0.0317966068910461
0.0267249449761517
0.0205901481206198
0.0141857369128599
0.00872158962650485
0.00479091950178033
0.00258560432560624
0.00189579638794078
0.00346108451841543
0.0071733334737991
0.00988959302573562
0.0138393467302988
0.0251406588184362
0.0479785382650603
0.078685301990752
0.109269117508894
0.135535421663401
0.157224345102055
0.175095150863831
0.189859852107906
0.202074754076605
0.212176856286288
0.220510341202161
0.227348176978603
0.232908974435616
0.23737195094006
0.240886352463901
0.243582511846627
0.245578155308416
0.246982558905879
0.247906454576034
0.248466217369404
0.248673544956079
0.248377623763845
0.247612011592399
0.246592742311952
0.245371096475206
0.244002110398357
0.242492081273958
0.240866591361402
0.239144882495783
0.237340824311261
0.23546331284814
0.233516909057609
0.231501404163437
0.229413520768649
0.227246259811603
0.224988648394741
0.222626799488298
0.22014463948995
0.217524443534729
0.214747286272064
0.211793785645915
0.208645079567698
0.205283740185921
0.201692960408814
0.197854036789674
0.193742938578614
0.189330476247212
0.184583926813205
0.179469673453802
0.173949647567769
0.167986675058232
0.161532487628397
0.154535852148651
0.146937283392313
0.138666565533896
0.129634858901448
0.119717614952507
0.10882741570591
0.0971485404494802
0.0840631171993001
0.0770387474687627
0.0826759110228695
0.0906920308907158
0.10050867179549
0.111509985821971
0.12440878129802
0.140153272084846
0.15849625362089
0.177543357989475
0.196553435479274
0.215266993527621
0.233206954472811
0.249028949327334
0.265107318150814
0.284058002517271
0.307496112021444
0.337486092733744
0.378648991740981
0.435826221380803
0.502174562381224
0.576747181615131
0.658619320206766
0.739020403415055
0.768801933847181
0.746752687333514
0.66859032682074
0.397364300776419
0.298167124784314
0.869294257302251
0.714646148870541
0.383958802127354
0.119207331027544
0.0154294304044543
0.00740981246695663
0.00895301043099002
0.00855691976033983
0.00828156008433322
0.00884403723894972
0.0102090009655437
0.0127108014402435
0.0165433187613291
0.0215680887568896
0.0274833968665587
0.0334403606902381
0.0382970731818977
0.0410570365854915
0.0415147251473423
0.0397189205258227
0.0359450771437834
0.0307519861508141
0.0248307173413629
0.0185319935675625
0.0124200794546234
0.00747076583791454
0.00429334512943456
0.00317180440238939
0.00530470157346418
0.010075619495511
0.0147466125754037
0.0233173803108256
0.0428579338753581
0.0710286531476907
0.097534270393374
0.11789519677718
0.133991546046331
0.147535941067573
0.159105174683055
0.16894936474966
0.177276176448901
0.184283420085225
0.190149910974501
0.195030710213217
0.199057929439584
0.202344440395341
0.204987646512761
0.20707432659823
0.208683306797513
0.209886703317634
0.210742526585671
0.211225896157542
0.211350775219595
0.211145909737876
0.210675200847984
0.210041688804582
0.209272632309235
0.208394374308709
0.207414174476248
0.206347855297832
0.205205739079419
0.203994435465076
0.202717273943522
0.201374303200468
0.19996274109422
0.198477490963947
0.196911241729651
0.195254433224615
0.193495716574297
0.19162272029137
0.189622586187935
0.187482388182815
0.185189679444129
0.182732849227024
0.180101479024386
0.177285575791733
0.174273692824615
0.171051732212045
0.167603500901443
0.163912321438401
0.159960965944217
0.155732659531186
0.151209545078779
0.146377353818163
0.141211636875843
0.135705004048004
0.129814973438157
0.123524463142601
0.116724856201887
0.109211136005832
0.100837097861036
0.0912761286649886
0.0854626654637612
0.0860623499443417
0.0900867720562111
0.0965066164459466
0.104656612149185
0.11466400228687
0.126802979429098
0.140833907503495
0.15605430590161
0.171967463437166
0.188403578592119
0.205126926903413
0.222170269414013
0.240576997750029
0.261718219037103
0.286735136921752
0.316728967248719
0.353078000205104
0.395101045047719
0.438649291366247
0.480362061166549
0.51491063769122
0.539327535814221
0.558521394190965
0.587831409727622
0.758879578216993
0.743770010774273
0.802890992619506
1.34885790828819
1.02068705112471
0.562457169955953
0.190811295554411
0.0259519267488734
0.0100481184892158
0.0118693259834925
0.0116357421393525
0.0114669107829863
0.0122507527213768
0.0139419989131722
0.0167866122453081
0.0207077401612379
0.0252414860121406
0.0298880067615151
0.0338603709664065
0.0366326544041728
0.0378056191330747
0.0373794573754338
0.0354553070111611
0.0322182659841594
0.0280346009900698
0.023377072346721
0.0184750407724815
0.0134242933131798
0.00890442731681886
0.00558471782944745
0.00425891291129321
0.00651830255237542
0.0118166605373306
0.0189243403395972
0.0328880097662524
0.0570857436394916
0.0827524215143658
0.101136202947169
0.113887559467723
0.124614842190432
0.134255428332618
0.142808233281614
0.150257568717276
0.15666345076344
0.162124061202437
0.16674570860955
0.170628870753933
0.173863630549307
0.176529444969582
0.178696623392574
0.180428082988308
0.181779438277264
0.182794452047748
0.183478836978682
0.18385513376582
0.183955678440174
0.183815162644699
0.183485733719493
0.183022222218152
0.182443235858574
0.181765633150213
0.180997723793586
0.180150559181104
0.179230966988958
0.178242905041704
0.17718780052505
0.176064530611901
0.174869937541895
0.173599042456314
0.17224542297885
0.170801217558596
0.169257372727269
0.167604354082279
0.165832671784787
0.163933260008702
0.161897843523506
0.159719041236437
0.157390455485225
0.154906051610638
0.152258854596128
0.149440625981844
0.146442427925436
0.143255993607881
0.139872772208963
0.136287153391301
0.132494369789514
0.128499124797993
0.124297152127732
0.119903320949604
0.115302635252448
0.110514213304367
0.105483929013741
0.10011040617268
0.0942269098877326
0.0876326863838058
0.0830767944505705
0.0816366157304808
0.0831226681001253
0.0869019172072702
0.0923759562450596
0.0993975514593878
0.107925882226837
0.117697418891318
0.128387511934539
0.139693485473043
0.151491235834871
0.163645010465931
0.176488227743781
0.190610085638631
0.206700924070427
0.225379891601442
0.247133145190037
0.271984240766072
0.297846312573498
0.322393616340564
0.343663923963648
0.35877722137365
0.367766443122033
0.381825664201723
0.400003669938847
0.582044462624728
0.880687119782301
1.3156938080799
1.57275196143106
1.31684311946899
0.764561959871325
0.282018267560892
0.0397157028698648
0.0117718700286784
0.0131723704978272
0.0133644647608256
0.0134696063448132
0.0143437075211119
0.0159529065498768
0.0184080620856237
0.0215066540691833
0.0248297357046396
0.0280218020467559
0.0305941647347539
0.032316929047159
0.0329606349117656
0.0324844040213381
0.0309157763259834
0.0283476819473952
0.0250246119827574
0.0213044771725331
0.0174025232498778
0.0133359303224813
0.00949029572574373
0.00640202967773831
0.00510574360409792
0.00753005237917458
0.0137264462239473
0.0237896528222381
0.0422300821344087
0.0671885027948629
0.0875374720460648
0.0997770285566177
0.108686397131972
0.116953590183213
0.124682469247101
0.131656508083505
0.137794663463882
0.143113859803202
0.147675621365423
0.151555427712124
0.15482839412261
0.157563795634584
0.1598237286595
0.161663561114536
0.163132183425197
0.164270279852274
0.165102234338761
0.165644849199014
0.165928966911347
0.165984533480281
0.165844627624718
0.165549178147148
0.165132308659274
0.164608958165732
0.163992195002846
0.16329031507757
0.162511877773599
0.161662090703601
0.160743766563667
0.159757601630853
0.158702214299726
0.157574596563738
0.156370246724147
0.155083664773611
0.153708360684748
0.152236999494343
0.15066205204921
0.148976305716158
0.147173200584103
0.14524706283799
0.143193079520942
0.141007253277586
0.138685922767908
0.136224861551457
0.133619330140748
0.130864521927311
0.127956668048129
0.124892316484494
0.12167335672428
0.118304364412886
0.114798875504338
0.111163555472778
0.107422462888968
0.103578462297873
0.0996669846099599
0.095673270540471
0.0915762796216181
0.0872586093002925
0.0826207226204178
0.0791543305939393
0.0771944698734135
0.0773794684472575
0.0795218658590074
0.0832004766685248
0.0881883062943463
0.0943184055239716
0.101329583813068
0.109026296676112
0.117210531294292
0.125779010599228
0.134631763924563
0.144098623371968
0.154584023713786
0.166473886329912
0.180096890752647
0.19567077867443
0.212896246926432
0.229896407750498
0.245354923559853
0.258452069214319
0.267958466740586
0.274453471954465
0.285654546555467
0.3000839130642
0.391602196281909
0.745728148098548
1.31405364301089
1.45668316194447
1.46726578214416
0.978748363900004
0.398636393028584
0.0594394358690598
0.012859914299996
0.0128819124004352
0.0135486502001141
0.013966588121947
0.0148394228369692
0.0162165473293422
0.0181723971819372
0.0205409624122248
0.023027950602629
0.0253806076638024
0.0272808861972332
0.0285869000947428
0.0291202609810469
0.0287996601282898
0.0276001971083188
0.0255585845783927
0.0228456980133789
0.0197514522647918
0.0164886167485134
0.0130941675602071
0.00980156807373537
0.00702202210249559
0.00591042328363214
0.00875017032942172
0.0163851798502611
0.0296689699118139
0.0508826258473428
0.0737192152957756
0.0887047629307224
0.0972095497151681
0.104297993548868
0.111317306972422
0.117969290098442
0.124005393618252
0.129339384293808
0.133975698481449
0.137960294512417
0.141353628077448
0.144217555689216
0.146609900264411
0.148582758997668
0.15018238490342
0.151448717091714
0.152413529901231
0.153096523337551
0.153523123099279
0.153721595799751
0.153719794750296
0.15354754177243
0.15323613394389
0.152809856520301
0.152281844910646
0.151663372840303
0.150962466014125
0.150186335121461
0.149339404406527
0.148424000617852
0.14744059281812
0.146387887767644
0.145263205238585
0.144062590900652
0.142781372008688
0.141414158934661
0.139954926849672
0.138397615892414
0.136736627453734
0.134967118832222
0.133085139195872
0.131087529019629
0.128971807712003
0.126735816205031
0.124377093516633
0.121893094263154
0.119281495507345
0.116541211361771
0.113673058092419
0.110684623537942
0.107585933983758
0.104394431838949
0.101123096646401
0.0977998140691752
0.0944388230886974
0.0910831437610359
0.0877438420492355
0.0844484370476669
0.0811312029183542
0.0777816993850919
0.0751992456976712
0.0733100817934515
0.072888586473531
0.0740389727020869
0.0765298862803434
0.0801470688580802
0.0846835218093857
0.089900540681798
0.0956601632906888
0.101820919900279
0.108291333586198
0.114990529541201
0.122195816463985
0.130214481819678
0.139291795691371
0.149614628604686
0.161292477265274
0.17400624330892
0.186343546981373
0.19756947056929
0.207417158691889
0.215367439608624
0.221917400724157
0.231390001479609
0.24628334560182
0.281198563943856
0.546586505124655
1.02442688487329
1.15415203294242
1.42357252413743
1.15609170267541
0.541523413377952
0.090510251387236
0.0144385384583183
0.0118943029945413
0.0128624467526062
0.0135405228106471
0.0144095966242669
0.0156193490846444
0.0172424617198926
0.0191598863526458
0.0211610959775699
0.0230547584177791
0.0246236250401087
0.0257594499417085
0.0263088285255962
0.0261677245402611
0.0252776625583356
0.0236375676918867
0.0213678610802916
0.0187120253480679
0.0158800588561377
0.0129442697939665
0.0100763106102418
0.00761244076483756
0.00680687695391939
0.0103689420069686
0.0199558243178956
0.036268898039912
0.0582857927718656
0.0774639339645195
0.0881688542042603
0.0946535329079324
0.100870836544755
0.107184431203171
0.113174270417087
0.118613161334297
0.123422815011222
0.127604584208967
0.131197362258585
0.134253881308937
0.136828743487047
0.13897317285326
0.140733214379149
0.142149346268851
0.143255864671159
0.144079304205113
0.144641543136362
0.144968679502146
0.145087009928547
0.145022484438259
0.144801771088497
0.144450463005538
0.143987796712576
0.143425971678067
0.142775356983127
0.142043759422805
0.141237690673994
0.140361244929657
0.139416616040141
0.138404307404486
0.137323275710358
0.136171236272072
0.134944774583787
0.133639939652904
0.132252233603773
0.130776646217112
0.129208216070245
0.127542515119643
0.125775905300026
0.123905601384644
0.121929522605238
0.119846151838985
0.117654282122223
0.115352587105206
0.112939900049868
0.110415436432721
0.107780249384515
0.10503913223085
0.102203309605903
0.0992856209342209
0.0963051460723005
0.0932785567379433
0.0902351117082537
0.0871961803095389
0.0842080475807795
0.081298254672381
0.0785207502235299
0.0758536744017089
0.0733548309435082
0.0714480579538024
0.0698317161812287
0.0691839896630103
0.0697516075929031
0.0714555223164401
0.0741317361843029
0.0775748976725649
0.081580666272021
0.0860440318948474
0.0908538477972826
0.0959256942146214
0.101192535539714
0.106879916056625
0.113233391728519
0.120428684078646
0.12858587882499
0.137775083410609
0.147740928445051
0.157499603260968
0.166665301798107
0.175189150133226
0.182827009281595
0.18986371106179
0.198371171750051
0.212724801957839
0.226323090395942
0.38764097661425
0.724913510091477
0.829559189138886
1.20874050222161
1.24526793210955
0.701584965111375
0.139037313796091
0.0178862736442471
0.0109723314524709
0.0119419880656661
0.0128099644492117
0.0136824641077186
0.0147904116168329
0.0162093032775294
0.0178498541003672
0.0195561809701735
0.021181643657426
0.0225732221639767
0.0236401619775144
0.0242447639147687
0.0242707281413499
0.0236368895894114
0.0223141362258815
0.0203848290121206
0.0180568407336443
0.0155367990066535
0.0129307339065303
0.0103982232157222
0.00825081889300276
0.00787093276635808
0.0125006270632472
0.0244267428566825
0.0430803114556391
0.0640838008365447
0.0792027260319386
0.086937883380109
0.0924451143507008
0.0982422051587566
0.104135607248595
0.109705755434242
0.114754610611157
0.119213571385597
0.123084545372338
0.126403632105746
0.129219847247471
0.131583977904609
0.133543514127063
0.135140847495733
0.136412817458153
0.137390396872188
0.138097583689668
0.138558362303706
0.138797873729029
0.138840927631278
0.138711821655692
0.138434643586862
0.138031301946206
0.137518340506985
0.13690750895164
0.136208758979754
0.13542981781764
0.134576905361981
0.133654066145918
0.132663576488648
0.131606128003668
0.130481012179727
0.129286364032064
0.128019277116097
0.126676426303925
0.125254041363788
0.123747902297132
0.122153872754295
0.120468376772405
0.11868862125622
0.116812601707688
0.114838922185053
0.112766650121646
0.110595151078521
0.108323794740623
0.105952235692608
0.103480745529535
0.100912662035039
0.0982559130010721
0.0955235337318339
0.0927297588140667
0.0898941647583166
0.0870354870495941
0.0841831122125797
0.0813626937216488
0.0786213974479641
0.0759969065087137
0.073556736925993
0.0713111169757885
0.0693665944747051
0.0679480121435509
0.066639409077588
0.0659647744754396
0.0662118364008902
0.0674017428140096
0.0694278958520008
0.0721060101831663
0.0752721733614443
0.078843238689717
0.0827234554002889
0.086833503989258
0.0911181812327174
0.0957591337691559
0.100957913309486
0.1068540506885
0.113538870980507
0.121074801578046
0.129295021038856
0.137569765091134
0.145715621941597
0.153730589310044
0.161474350262291
0.168999248538183
0.176967401777087
0.189802341386243
0.197593903424631
0.286847277812202
0.508441273041909
0.574602301650296
0.918908620441215
1.2117984346133
0.855876701547276
0.210646521166721
0.0251015663939321
0.0105172726622732
0.0110780866242043
0.0120714390284971
0.0129466417908678
0.013982947900727
0.0152652220163463
0.0167225861670708
0.0182367192825389
0.0196950030879117
0.0209865445112098
0.0220316129331697
0.0227035566743094
0.0228797170571942
0.0224630245806131
0.02140234778404
0.0197495839894369
0.0176828682046924
0.0154052821363425
0.0130527683892003
0.0108015332204903
0.00898311298513471
0.00916726849881138
0.0152381183842705
0.0296590859625076
0.0495475357247539
0.0681924241059444
0.0796106506894315
0.0855208614583235
0.0906384441034641
0.0962457808185846
0.101893430088263
0.107201906527749
0.111998527730643
0.116223763050724
0.119881783589424
0.123008344075976
0.12565118531706
0.127859445718815
0.129678735984739
0.131149394873212
0.132306067483599
0.13317778519087
0.133788117683604
0.134161581471432
0.134322534010001
0.134294657173202
0.134100893896581
0.133763388431045
0.133301727105469
0.132731033120358
0.132062920741389
0.131307235442855
0.130471776999486
0.12956274824059
0.128584333476997
0.127539034748381
0.126427829884121
0.125250392819283
0.124005282263606
0.122690060895851
0.121301945848067
0.119837762316842
0.118293903870073
0.116666849124163
0.114953635196579
0.113152049702659
0.111260589592367
0.10927825969705
0.107204439387163
0.105038792493608
0.102781064225857
0.100431358401153
0.0979909635079569
0.0954654497678821
0.092864773318012
0.0902026367891378
0.0874938618956561
0.0847579037262306
0.0820145047116483
0.0792925034641281
0.0766199016329172
0.0740433459921637
0.0716063533578884
0.0693823345114657
0.0674035782897244
0.0658079145187164
0.0647199342677969
0.0636829645655297
0.0630740981730474
0.0631654387399927
0.064030694240566
0.0656119676650403
0.0677529948406348
0.070331582075794
0.0732788082061563
0.076505952118228
0.0799393871390669
0.0835346701815335
0.0874364087816773
0.0918133172105458
0.0967858222756353
0.102437142244025
0.108838613034404
0.115921956995955
0.123340538818713
0.131008258479555
0.138880476751315
0.146615591714263
0.154373475173072
0.16242349065525
0.173463314862824
0.18004835125774
0.228934141576858
0.366223451054936
0.405099834357621
0.652551836691312
1.0689089986764
0.972289250248229
0.308333911171462
0.0385542490684926
0.0108151719526166
0.0103729362378134
0.0114194024251434
0.0122955293842314
0.0132716687583113
0.014451934257642
0.0157788926933539
0.0171606022689555
0.0185100936749108
0.0197445498736678
0.0207918850650963
0.0215338334713422
0.0218450047051621
0.0216171839650617
0.0207816083274624
0.0193650095015862
0.0175192413111211
0.0154439436916633
0.0133021578239258
0.0113056659691292
0.00984801259411262
0.0107686062891716
0.0186454086649207
0.0353756416851536
0.0551909426985872
0.0707501048832238
0.0792194983545791
0.0841646182799186
0.0892088565903915
0.0947568879943786
0.100276506252601
0.10543366038108
0.110075619657273
0.114150865127028
0.117666657956209
0.120659886419359
0.123178591168837
0.125271712508797
0.126984260620912
0.128355659030329
0.12941942005028
0.130203635813498
0.130732071942823
0.131029302848214
0.131119114585448
0.131024352990724
0.13076691505272
0.130367576171165
0.129844528628603
0.129212218036183
0.128482348009664
0.127664878061337
0.126767821094172
0.125797558250991
0.124758549374394
0.123653622774389
0.122484108082782
0.121250088931845
0.119950541550093
0.118583457757661
0.117146525090231
0.115637056050762
0.114051915594631
0.112388031988274
0.110642871984859
0.108814605341911
0.106902022804149
0.104904320129514
0.102820988317311
0.100651787922505
0.0983966001238244
0.0960557679678027
0.0936317732493913
0.091132032314909
0.0885675023637518
0.0859519430786447
0.0833002730348222
0.0806314797641566
0.0779656158324647
0.0753305946874397
0.0727554472142347
0.0702854608833546
0.0679670533780335
0.0658749006247368
0.0640558244541228
0.0626645634645541
0.061780455578094
0.0609531348117581
0.0604407117103527
0.0604746663127113
0.0611458856401564
0.06243006291433
0.0641993453440637
0.0663697886743888
0.0688791240690925
0.0716420308732916
0.0745934621330172
0.0776982040553708
0.0810687202555999
0.0848497425823239
0.0891518698735681
0.0940627577905488
0.0996729056991206
0.106019271411024
0.112973588390028
0.120265799348156
0.127788387683589
0.13529693670908
0.14310008525612
0.151722946112927
0.161445633631908
0.167775289656977
0.195855113750083
0.277921542012437
0.300093107808609
0.453811155779512
0.868236840743572
1.02391760080061
0.429826639477419
0.0601975184720064
0.0122646099792986
0.00988026964383735
0.0108715683064697
0.0117473783599475
0.0126683063544158
0.013765485107997
0.0149941886624998
0.016281051422432
0.0175580663823179
0.0187612650119565
0.019824059520426
0.0206349311441656
0.0210681844799327
0.0210081449158879
0.0203721112665865
0.0191656865314003
0.0175173447006301
0.0156230956427284
0.0136720738793274
0.0119267688055607
0.0108863363512084
0.0127605892435427
0.0227205400029314
0.0411906324070053
0.0596869203716479
0.0720324249923884
0.0784177069987757
0.082981285834616
0.0881165809202879
0.0936870474598092
0.0991629946373015
0.104249569750936
0.108809257136171
0.112797398802358
0.116224655219691
0.119129930368157
0.121562603596179
0.123572424034284
0.125204719308878
0.12649883754254
0.127487960517587
0.128199801108481
0.12865859419233
0.128888875005686
0.128914059375333
0.128756407481548
0.128437065457985
0.127975922168204
0.127390419185469
0.126694787939653
0.125900992535514
0.125019272567053
0.124057976192344
0.123023806992205
0.121921601234188
0.120754586472953
0.119524489121219
0.11823181768002
0.116875954376363
0.11545528177152
0.113967896787126
0.112411510547953
0.110783343908896
0.109080643646532
0.107301164714612
0.105443309393274
0.103506007267433
0.101488489527397
0.0993902121109752
0.097210883840586
0.0949503464946102
0.0926091625592732
0.0901910956520976
0.0877048179811243
0.0851615847737821
0.0825748766509619
0.0799594031219352
0.0773334912876675
0.0747170454931923
0.0721368464541575
0.0696220633894111
0.0672161287215531
0.0649663780738426
0.0629459821814839
0.0612109035624205
0.0599217501027813
0.0591427836921989
0.0584588568615184
0.0580394538301044
0.0580692357486994
0.058634149673644
0.0597278937663587
0.0612491450158054
0.0631433666754497
0.0653466328199178
0.0677775160664696
0.0703846867371507
0.0731390418147612
0.0761243776559906
0.0794697187026386
0.0832805331223224
0.0876580388378572
0.0927199166714863
0.0986117212165305
0.10508871661411
0.11190854299274
0.118979709601338
0.126269316056205
0.134090805542099
0.14317122152247
0.152401674576915
0.158516866426896
0.17570594515313
0.225247775493813
0.237997853536382
0.322879056367035
0.665739597178266
1.00180547013354
0.55865542998377
0.0945207691560281
0.0155852584678175
0.00967314949755289
0.010426871782844
0.0112969219515596
0.0121660237535299
0.0131912097788909
0.0143424298121461
0.0155593943701923
0.0167877231576023
0.0179760150756132
0.0190616061188241
0.0199386135525047
0.020482750558084
0.0205739357350553
0.0201189563139415
0.019105782377875
0.017642651775331
0.0159215537117049
0.0141586966929225
0.0126819032924422
0.0121452613523135
0.0152306385883634
0.0273836287800207
0.0466871087763519
0.0629024787636418
0.072369977693864
0.0774700669049197
0.0820153522634022
0.0873246302164576
0.0929730919906946
0.0984680718338344
0.103545204210992
0.108078351192942
0.112028523260352
0.115409740295035
0.118263402285395
0.120640906040306
0.122593518243329
0.1241675562215
0.125402915738955
0.126333012157027
0.126985592735363
0.127385415127516
0.127557059761334
0.127523752537669
0.127307387539273
0.126928627983893
0.126406867629278
0.125759250939202
0.125000099967065
0.124141774149632
0.123194922510582
0.12216833136003
0.121069135439837
0.119902624026438
0.118672477711039
0.117380850720565
0.116028684111749
0.114615751976946
0.113140791988324
0.111602259543581
0.109998192223571
0.108326073134264
0.106583364090768
0.104768000573018
0.102878506579884
0.10091383682715
0.0988731448291223
0.0967557473889021
0.0945611928163656
0.0922891706284376
0.0899405768623831
0.0875203716388511
0.0850378681258524
0.0825042072555181
0.0799324034790769
0.0773367671155669
0.0747348633512635
0.0721461519431416
0.0695961755528761
0.0671136503781736
0.0647398799933639
0.0625217971570822
0.0605294651944498
0.0588242000636697
0.057564501870149
0.0568156552579899
0.0562144286744228
0.055867894282901
0.0559171412929869
0.0564319592322073
0.0574114343089401
0.058779235026564
0.0604857652851626
0.0624717098986523
0.0646739443170727
0.0670435228135641
0.0695478720756247
0.0722532636723485
0.0752817600561039
0.0787339674296312
0.0827346649105172
0.0874160501711943
0.0928539139601424
0.0988124740404819
0.105191813075074
0.111975687620557
0.119193962515178
0.127087499340952
0.136252925373843
0.145515605490519
0.151247026036046
0.162312906507218
0.192974083611323
0.200483789520988
0.242970655738662
0.49497481471514
0.917366658649158
0.674750738606891
0.14539120609
0.0216561124102465
0.00987912004974677
0.0100893241305164
0.0109342015967808
0.011754470780865
0.0127143848925266
0.0138018664151611
0.0149659819982394
0.0161616919057116
0.0173457030025014
0.018457984268289
0.0193974234573459
0.0200423645475882
0.0202709383585671
0.0199827669707602
0.0191516952858535
0.0178692119322857
0.0163236937332059
0.0147609591473563
0.0135904724535561
0.0136812503290233
0.018247148220499