/*--------------------------------*- C++ -*----------------------------------*\
  =========                 |
  \\      /  F ield         | OpenFOAM: The Open Source CFD Toolbox
   \\    /   O peration     | Website:  https://openfoam.org
    \\  /    A nd           | Version:  7
     \\/     M anipulation  |
\*---------------------------------------------------------------------------*/
FoamFile
{
    version     2.0;
    format      ascii;
    class       volScalarField;
    location    "1000";
    object      k;
}
// * * * * * * * * * * * * * * * * * * * * * * * * * * * * * * * * * * * * * //

dimensions      [0 2 -2 0 0 0 0];

internalField   nonuniform List<scalar> 
15600
(
1.56257465775592e-05
1.73054676626709e-05
8.1670484587157e-06
2.28926103587853e-06
2.12905575223477e-07
1.42186160411875e-07
1.73813536360412e-07
1.67467280926651e-07
1.71853783108869e-07
2.02110355591199e-07
2.63057944251791e-07
3.71761866195052e-07
5.50527968344209e-07
8.22010163498217e-07
1.21309588695185e-06
1.7307956543233e-06
2.33137657877709e-06
2.92765567302898e-06
3.43392000139086e-06
3.73241209135319e-06
3.72514218173115e-06
3.38217236793799e-06
2.75496784354106e-06
1.95195572932882e-06
1.2201262904361e-06
6.81490733501425e-07
3.80729352647095e-07
2.88460954129008e-07
5.39536028895607e-07
1.16891909798555e-06
1.60657700601735e-06
2.13692739126873e-06
3.65365577459062e-06
6.68837965087899e-06
1.12077038954024e-05
1.70495198638294e-05
2.38540087429859e-05
3.10050938239646e-05
3.79354867189094e-05
4.43153619961069e-05
5.00174088039522e-05
5.50386293270391e-05
5.94290784001562e-05
6.32555642396423e-05
6.65828729921904e-05
6.94686993576103e-05
7.19602705776961e-05
7.41002927584211e-05
7.59294908605972e-05
7.7485575169435e-05
7.8806215589868e-05
7.99324855618583e-05
8.09110442866884e-05
8.17713117296611e-05
8.24807615941276e-05
8.30052008176901e-05
8.3353680183114e-05
8.35127356437151e-05
8.35489384315502e-05
8.34661644259433e-05
8.32714735822445e-05
8.29701827096484e-05
8.25645870703363e-05
8.20568534795318e-05
8.1445939871721e-05
8.07306751926267e-05
7.99086145965358e-05
7.89754237324174e-05
7.79262347247919e-05
7.67557188016967e-05
7.54583815689422e-05
7.40288675993458e-05
7.24621810814141e-05
7.07548193774792e-05
6.89054549774679e-05
6.69147348791178e-05
6.4784610615033e-05
6.25148355940984e-05
6.01028913141763e-05
5.75443776786026e-05
5.48379264380977e-05
5.19788851469734e-05
4.8970641644325e-05
4.58065312849958e-05
4.24946522521884e-05
3.90285298380504e-05
3.54310335205781e-05
3.16940925657184e-05
2.78711544001038e-05
2.41052644243877e-05
2.04739586463458e-05
1.67019421196177e-05
1.51574899429026e-05
1.77974949448628e-05
1.98922340944483e-05
2.16681284111334e-05
2.27961525811981e-05
2.3583894916309e-05
2.43798079934856e-05
2.51193223228738e-05
2.53105350233665e-05
2.50764058888862e-05
2.45531461036757e-05
2.38066336876198e-05
2.26013025283112e-05
2.13677138919478e-05
2.03674108382157e-05
1.96209353636905e-05
1.91733886078442e-05
1.92696614758881e-05
2.02903697159739e-05
2.18381021323246e-05
2.4228430848534e-05
2.83272710727985e-05
3.43466649563596e-05
3.51700863299214e-05
2.37883267129658e-05
1.34484012916417e-05
7.43405267601892e-06
8.36195493607029e-06
0.000507708979512956
0.000567098735723725
0.000265217325488054
7.65517667793191e-05
7.73829610222091e-06
4.64619175281109e-06
5.64355375149039e-06
5.46722454311615e-06
5.58746833093992e-06
6.52985481106876e-06
8.45863827316729e-06
1.1915208439993e-05
1.76122767990878e-05
2.62711987994039e-05
3.87431118923574e-05
5.55054505429019e-05
7.52609448130932e-05
9.5125273299141e-05
0.000112175942020571
0.000122387181168175
0.000122307562035996
0.000110792755809918
8.96488828798382e-05
6.36037198988786e-05
3.98791889159265e-05
2.22339101131086e-05
1.23309387245883e-05
9.3656435551633e-06
1.80046206855911e-05
3.88002802784914e-05
5.26829900922832e-05
6.9423352896682e-05
0.000119024557226586
0.00021880843445769
0.0003668180132319
0.0005542274132607
0.000764943490127601
0.000977829411561461
0.00117691384793453
0.00135490300359719
0.0015103769058125
0.00164482890788618
0.00176066576826125
0.00186034692792994
0.00194603155726997
0.00201953365888514
0.00208232089778917
0.00213568486695039
0.00218080995079955
0.00221877063773902
0.00225061370394996
0.0022774509401268
0.00230051573844321
0.00232067308748219
0.00233715637518094
0.00234904941247594
0.00235666427776853
0.00236018161398035
0.00236075546308792
0.00235850293796087
0.00235360808861795
0.00234620342917905
0.00233634336700678
0.00232406963327662
0.00230934097596295
0.00229210592234732
0.00227227451736471
0.00224970360649484
0.00222422986712537
0.00219567143755028
0.00216383509439838
0.00212852393205154
0.0020895423733291
0.00204672546160683
0.00199995652416575
0.00194916413092371
0.00189430849977502
0.0018352924136201
0.00177195549658835
0.00170407954812468
0.00163152020136627
0.00155402872322057
0.00147157173015426
0.00138382301453186
0.00129085455427086
0.00119229794851779
0.00108865032125181
0.000979455626415457
0.000866157274531612
0.00075268968357443
0.000643997530933536
0.000530092241848517
0.000481703473447331
0.000566253965228359
0.000632658443561258
0.000689290636482285
0.000725762170308786
0.00075248198986323
0.000780109132348096
0.000805435924386835
0.000812087578985193
0.000804932124696677
0.000788037148686587
0.000763157311038484
0.000722853762612497
0.000683795740791828
0.000653206878270061
0.000630893727070514
0.000618902932232806
0.000625892633821684
0.00066252415499713
0.000712095364481174
0.000787945167703068
0.000914292116436548
0.00108184400162517
0.00107552900355504
0.000770989409201008
0.000454101417010495
0.000250235732841161
0.00027145352437448
0.00330798201902846
0.00361267241616956
0.00188564842241781
0.000569528479685311
6.38951240621568e-05
3.39915048466712e-05
4.10731757092737e-05
4.00744351346262e-05
4.09180193823629e-05
4.75929130788812e-05
6.14535178692428e-05
8.6239734503611e-05
0.000126876982004524
0.000187975340898663
0.000274325314935751
0.000388711430613611
0.000519721262942734
0.000646496250467751
0.000750083522705714
0.000808232804603249
0.000803989773831402
0.000732911595266038
0.000603905953786723
0.000441360780856547
0.000286810967002367
0.000163944639723
9.08631504517175e-05
6.80145668223974e-05
0.00013050350075201
0.000270626492229977
0.000362306618570773
0.000486726334539016
0.000844261428832162
0.00150402087796558
0.00234530360470956
0.00319521819756119
0.00395735398213795
0.00460569326239322
0.00514693995850258
0.00559733496853475
0.00597333214157699
0.00628901470378398
0.00655558121069312
0.0067817231220116
0.00697414100080734
0.00713807428333114
0.00727769303494774
0.00739651764047604
0.00749761954437078
0.00758372617604233
0.0076574305905633
0.00772135438232141
0.00777772820939296
0.0078277876041655
0.00787036839424132
0.00790445103770741
0.00793113406045495
0.00795115595784684
0.00796552439325293
0.00797448455111737
0.00797823594547038
0.00797683813685415
0.00797017706944609
0.00795806274862059
0.00794012940326435
0.00791596065734341
0.00788504641246512
0.00784675760260556
0.00780040763493891
0.00774526952298928
0.00768059685395545
0.00760564240742154
0.00751967593358186
0.00742203988640584
0.00731219007575318
0.00718968347474679
0.00705412253748152
0.00690497139914517
0.0067415310361589
0.0065629613262258
0.00636849000155486
0.00615709843658893
0.005928029921596
0.00567990761944883
0.00541166608643124
0.00512137489274648
0.00480785968296299
0.00446813852816422
0.00410055872441563
0.00371345929335928
0.00331924215195842
0.00288067517718275
0.00264639426165585
0.00289172506211795
0.00313423405735668
0.00335166284019127
0.00351633350264412
0.00365557758562504
0.00379947029865427
0.00393688599077303
0.00401842744358617
0.00404786620357376
0.00403519453756994
0.00398375045000394
0.00387032853672152
0.00374411065499446
0.00363781613398806
0.00355847804041331
0.00351631094961171
0.00354607960969311
0.00368571107639178
0.00387129990672003
0.00413337695132291
0.00452477373979446
0.00500230782595313
0.00497960265107518
0.00441093402336699
0.00340558017626147
0.00216472177617864
0.00201221098117614
0.00871785392040858
0.00903916881361614
0.00569747083277868
0.00207246416373242
0.000275112816956405
0.000125090222065936
0.0001501251008673
0.00014818326274605
0.000151804528315058
0.000175851509271249
0.000225237864947815
0.000311654369116303
0.000448921947432525
0.000645555936506427
0.000904941356207292
0.00121582711936316
0.00153449433838484
0.00181004913032373
0.00200880831604947
0.00209899124521331
0.00206086977245587
0.00189426828755395
0.00161525069277862
0.00125273586046602
0.000873268453874982
0.000539169101438764
0.000316804427800834
0.000243367581854075
0.000439381686473398
0.000819615523703804
0.00107799968434242
0.00147557919440084
0.00235676959460508
0.00358359331772114
0.00485039905192367
0.00600075857060056
0.00700543536388968
0.0078656024732398
0.00859346380249454
0.00920722680042576
0.00972597039454823
0.0101667995427084
0.0105437657682021
0.0108679745890308
0.0111480637220311
0.0113907947660169
0.0116015580856004
0.0117848764194337
0.0119446471009496
0.012084286792686
0.0122068845836411
0.0123149740284427
0.0124101245520615
0.0124929657327931
0.0125635831533009
0.0126224991170976
0.0126709195913513
0.0127096910269584
0.012739543504407
0.0127607684429588
0.0127735147465483
0.012777758740193
0.0127732778184171
0.0127597437157637
0.0127366374858979
0.0127033748536178
0.0126592777679105
0.0126035459908641
0.0125353175652158
0.0124537027298347
0.0123578146513738
0.0122467924199276
0.0121198239903772
0.0119761969454832
0.0118153417823019
0.0116368083608494
0.0114401807705559
0.011224894205258
0.0109902130651793
0.0107352880314436
0.0104593130203522
0.0101613240878083
0.00984052345975429
0.00949577967010947
0.00912587751372601
0.00872930418848119
0.00830418280030278
0.00784783696765521
0.00735604671812004
0.00683348753342489
0.00628876613462589
0.00567627048986428
0.00531395511322638
0.00552071176390541
0.00581930808530776
0.00611733859177799
0.00637499306365943
0.00661418657687692
0.00686383612705228
0.00710828579191708
0.00729300585410933
0.00741223026073742
0.00747296876854884
0.00747529415181545
0.00739583974400653
0.0072862353591029
0.00719150130356246
0.00712843973661267
0.00711216223903729
0.0071839687200411
0.00738113384258044
0.00762370330570985
0.00793178643420943
0.00835243238801384
0.00883832952318775
0.00883956017904023
0.00795020293606164
0.00681100554493808
0.0051919795972876
0.00607287032863325
0.013707116837559
0.0141566816022389
0.0101843556941506
0.00468754835316606
0.000818037065013354
0.000314562863704599
0.000369853518999187
0.000371374673641052
0.000382867909423755
0.000440173511090872
0.000552563332324598
0.000738337382332928
0.00101184348668777
0.00136842866069621
0.00179207554795575
0.00224595975065538
0.00267019309160077
0.0030095283204716
0.00323327705875292
0.00331300624423774
0.00323154359297901
0.00299270179961882
0.00261652243971983
0.00212865394935181
0.00158833525043677
0.00107103571076326
0.000687392629661588
0.00055741810781856
0.00091542357794151
0.00152093229030166
0.00198009539451927
0.00271055619889319
0.00397230570202932
0.00548363006498567
0.00695842855795029
0.00830826390628197
0.0095102375338179
0.0105497080874706
0.0114331429519642
0.0121801487299777
0.0128131837745846
0.0133526849523784
0.0138154570700544
0.0142147425730426
0.0145608003308807
0.0148616182481298
0.0151235381985642
0.0153518336639991
0.0155509827269488
0.015724791089266
0.0158764424851058
0.0160081294031727
0.0161215980779997
0.0162181009284524
0.0162986629517152
0.0163645367808668
0.016417027792552
0.0164570839913409
0.0164854244899172
0.0165024436615061
0.0165083312363581
0.0165030798771269
0.0164864649819254
0.0164581320219795
0.0164175261427422
0.0163640097326958
0.016296854556237
0.0162152102703833
0.0161181583816611
0.0160047604005446
0.0158740974559281
0.0157252966105736
0.0155575550940625
0.0153701816418075
0.0151626383516998
0.0149345112888174
0.014685411413694
0.0144148119469614
0.0141220316378968
0.0138063200460888
0.0134669570795051
0.0131032176595096
0.0127145515438434
0.0123004285031417
0.0118599815005798
0.0113923550941694
0.0108957901612999
0.010368564813953
0.00980616788440382
0.00921126440278855
0.0085893692358824
0.0078952677927723
0.00744811151311755
0.00756807168401983
0.00785866081518274
0.00818176593256343
0.00848468800813078
0.00877864894026377
0.0090859736036576
0.00938943494421607
0.00963844970795986
0.00982170561130952
0.00994260631088814
0.00999843568255802
0.00996959429009901
0.00990050491994003
0.00983704440931103
0.00980158917876856
0.00981264722652483
0.0099102767199265
0.0101281068456621
0.0103990803776123
0.0107407345401835
0.0112019154932989
0.0117505385597775
0.0119641834829856
0.0109654752876816
0.00957976926916277
0.00810980233323803
0.0107190800487589
0.0169668707089891
0.0182467646857583
0.0144210716765289
0.00780961991155678
0.00182525754402841
0.000615962578957443
0.000687938545852016
0.000704788039199017
0.000731148443515391
0.000828787590780578
0.0010079468764513
0.00128462738627101
0.00166287777472438
0.0021214638521224
0.0026318213647676
0.00314865859888021
0.00361319861866646
0.00397349178345364
0.00420033601672336
0.00426622232651669
0.00415407222825842
0.00386916743227329
0.00343470341721437
0.00287667092378134
0.00224629974577478
0.00161705302339455
0.00111797103764692
0.000954856555981965
0.00145116148620749
0.00223562023738003
0.002914681714429
0.00395328058534187
0.00547610798227204
0.00717024849847784
0.00882215442522733
0.0103593114281549
0.011732665973484
0.012917817637367
0.0139237753942368
0.0147744422254811
0.0154958490406772
0.0161111658748991
0.0166392806685983
0.0170950217898942
0.0174898578970502
0.0178327027220392
0.0181306203738973
0.0183894441861997
0.018614057516484
0.0188084986125575
0.0189758940618259
0.0191187263466964
0.0192391615041103
0.0193390028617047
0.0194198879858594
0.0194834429337655
0.0195310990305753
0.0195639266165225
0.0195827284447106
0.0195880106432447
0.0195800322045038
0.01955883272926
0.0195242168508857
0.0194758391100974
0.0194131432749805
0.0193354730878215
0.0192420854236325
0.0191321156648501
0.01900462430681
0.0188586569559976
0.0186932924334023
0.0185076716483038
0.0183010205942255
0.0180726819185968
0.017822153927177
0.0175490594768141
0.0172530419938537
0.0169336254991053
0.0165902016419285
0.0162221320401664
0.0158288392130328
0.0154099670826027
0.0149654020511827
0.0144951400762005
0.0139987139592078
0.0134758697376395
0.0129252823884427
0.0123461645644422
0.011734592742041
0.0110924874680839
0.0104230916408475
0.00968420961703473
0.00917628695628831
0.0092136743565173
0.00947399905904554
0.00979721956159108
0.0101193072092208
0.010441289465844
0.0107780768637865
0.011111678156623
0.0113966805487019
0.0116192507597448
0.0117798860369233
0.0118738911198506
0.0118854370638442
0.0118524941556797
0.0118183751885822
0.0118074059432646
0.0118403125860156
0.0119555059474693
0.0121861460689288
0.0124855540368206
0.0128765362055955
0.0134073477089363
0.0140531248845105
0.0144697214039155
0.0136842939993717
0.0119187078575506
0.0101550381192261
0.0131284390419115
0.0180431174713661
0.0209281569899987
0.0181909900832116
0.0110962291792422
0.00326602488038517
0.0010189812569612
0.00104002774089987
0.00108574970595142
0.00113231635020587
0.00126401643917265
0.00149243884801238
0.0018289162128703
0.00226885310706578
0.00278238766974286
0.00333631182018855
0.00388362259599646
0.00436830947128144
0.00474032879077757
0.00496940161460726
0.00502712193477889
0.00489552717126183
0.00458023619727284
0.00410713202345166
0.00350477382379484
0.00282035022270815
0.00212515558400327
0.00155538089688614
0.00138797775227796
0.00200819358458771
0.0029602121903167
0.00387163876150794
0.00517228134662749
0.00688813049212162
0.00874004584839199
0.0105633509281353
0.0122658765177555
0.0137795998989858
0.0150816479497426
0.0161861999776768
0.0171207851487602
0.0179139077664159
0.0185905955829157
0.0191712152828205
0.0196717780359289
0.0201046924647573
0.0204796112099742
0.020804178262039
0.0210846695175087
0.0213262792352977
0.0215331974607285
0.0217087436737707
0.0218557914057144
0.0219768979203096
0.0220743228543558
0.0221501244861777
0.0222061760271348
0.0222440572066239
0.0222649792513521
0.0222698645340016
0.0222593367691976
0.0222337404782304
0.022193179835578
0.0221375066014799
0.0220664051428669
0.0219793377375992
0.0218756497300264
0.0217546031261122
0.0216153388930554
0.021456915902111
0.0212783809128178
0.021078824847801
0.0208574134065663
0.0206134070662329
0.0203461831650996
0.0200552715388734
0.0197403247692051
0.0194010148217747
0.0190369145519513
0.0186474881909783
0.0182322139024919
0.0177907633185558
0.0173232502327701
0.0168299564541246
0.0163112964602995
0.0157672150202517
0.0151979858974425
0.0146028436051779
0.0139818482719651
0.0133320239214277
0.0126553635367158
0.0119537330483277
0.0111891016757008
0.0106368309924051
0.0106020246217941
0.0108241127100923
0.0111353648039389
0.0114628015100408
0.0117985667096498
0.0121500760810132
0.0124989093522493
0.0128046861985385
0.0130524900148336
0.0132402851368272
0.0133618400654344
0.0134043520131259
0.0134007508041472
0.0133913054348403
0.0134007310865511
0.0134514202680942
0.0135805776052558
0.0138227069018296
0.014150709168119
0.0145935315332909
0.0151950251080454
0.0159326424833697
0.0165041639960747
0.0159807500994481
0.0142229395080099
0.0118604858725928
0.0136663354093311
0.0175546735062974
0.0218186661015279
0.0212059696409498
0.0144111213771815
0.00508366217401166
0.00152100075596751
0.00137300227178139
0.00145360287274463
0.00152466991347539
0.00168267277836471
0.00194507404511569
0.00232004825493201
0.00279766262487877
0.00334414489200662
0.00392428608987448
0.00449089733904889
0.00498999052977639
0.00537227596795643
0.00560550291309658
0.00565977391750543
0.00551605682411481
0.00517983080174184
0.0046793348530597
0.0040465503448838
0.00332758474008969
0.00259361835332434
0.00198648908283146
0.00184254984882732
0.00259080195924974
0.00371645678318325
0.00485537673004175
0.0063690008433058
0.00824110550542929
0.0102445741308127
0.0122267070321311
0.0140698222572432
0.0156999846679143
0.0171000196247815
0.0182883830871696
0.0192948780806186
0.0201495383534321
0.0208786635438505
0.0215037430172302
0.0220417513802618
0.0225058965738787
0.0229064735174803
0.0232516301642232
0.0235480232142973
0.0238011227120562
0.0240152903267972
0.0241941821117569
0.0243410256629202
0.0244587367357889
0.0245499560751008
0.0246170628817192
0.0246621376121646
0.0246869271811949
0.024692800168695
0.0246808185117213
0.0246517330467183
0.0246059889150802
0.0245437707788462
0.0244649932722955
0.0243693879066278
0.0242564517401682
0.0241255477209671
0.0239759579827123
0.0238068431109571
0.0236172731954375
0.0234063065014944
0.023173053683334
0.0229167093366027
0.0226365676701099
0.0223320355494322
0.0220026648286287
0.0216481262266718
0.0212681100895117
0.0208622271104262
0.0204300054218466
0.0199710817756572
0.019485498624758
0.0189737882429293
0.0184365503066713
0.0178745432229994
0.0172881081523008
0.0166779799613251
0.0160439845409563
0.0153869353172744
0.0147049255060905
0.0140004129384583
0.0132746073791755
0.0124942010777538
0.0119087328084331
0.0118114458505304
0.0119929687729467
0.0122863141113956
0.0126117633490599
0.0129538472684289
0.013312432921166
0.0136689335368059
0.0139877013596911
0.0142533705989555
0.0144615234065346
0.0146047052543143
0.0146723686364165
0.0146931910654663
0.01470460711473
0.014731105748333
0.0147965507592834
0.0149373214901381
0.0151905101075341
0.0155463567382378
0.0160382866059116
0.0167037488692509
0.0175230123385872
0.0182194283811109
0.0179280205703514
0.0163409312153576
0.0136033136708524
0.013830234567878
0.0166178162137113
0.0211574059901169
0.0231177405133315
0.0176242796828009
0.00723736989951718
0.00214875666409514
0.00167607361690684
0.0017841989684909
0.00188406217277212
0.00206408236170145
0.00235182093663226
0.00275407680455992
0.00325755374483601
0.00382675600205347
0.00442550465722577
0.00500692972064491
0.0055183651467593
0.00591068665918968
0.00614948263909587
0.00620326026326537
0.00605200024564272
0.00570098298614028
0.00518051455734135
0.00452637941267991
0.00378554398038125
0.00303132780080467
0.00241317172631889
0.00231969071565834
0.0032102021503244
0.00451618571522388
0.00586094931666795
0.00754464928536063
0.00955558564724407
0.0117058024352085
0.013830232387043
0.0157936458516527
0.0175242137946
0.0190105203448339
0.020273706288453
0.0213447455750528
0.0222545739131775
0.023030416024327
0.0236946917989371
0.0242652304017656
0.0247559732910667
0.0251778133787439
0.0255393674293276
0.025847649175708
0.0261083805290742
0.0263261775635292
0.0265050444633113
0.0266485384054834
0.0267599042640407
0.0268421126610375
0.0268978154195639
0.0269292931300966
0.0269384765952342
0.0269269073179739
0.0268958026877484
0.0268460532952737
0.0267782205216396
0.026692585525464
0.0265891412612349
0.0264676824330255
0.0263277556221448
0.0261687552688753
0.0259899960161485
0.0257906688138538
0.0255698638858053
0.0253266573079304
0.0250601830114332
0.0247696645129215
0.0244544251234503
0.024113892454576
0.0237476279541925
0.023355306037009
0.0229366210695605
0.0224912044674745
0.0220186491194824
0.0215188415714316
0.0209922163176808
0.0204396186632425
0.0198619090481298
0.0192601308676858
0.0186349890051737
0.0179876187703353
0.0173184182546312
0.0166288604223521
0.0159181066237091
0.0151892061210905
0.0144432808359463
0.0136518256235119
0.0130402811178448
0.0128883104115818
0.013029098993269
0.0133015816849293
0.0136211854726509
0.0139658707660874
0.0143277347785599
0.0146882819222153
0.0150163030941474
0.0152962196043711
0.0155212902909317
0.0156831378945611
0.0157727757203957
0.0158149109512744
0.0158445017399551
0.0158855636722341
0.0159634037462119
0.0161137405463368
0.0163771598720966
0.0167591261134415
0.0172953250039989
0.0180177964242943
0.0189125359418768
0.0197212545372942
0.0196329758579867
0.0182164550493216
0.0154574174988173
0.014425034240796
0.0161226135609007
0.0197078578193678
0.0237516978357129
0.0205112036185508
0.00969914255101606
0.00296156611463081
0.00196543044205068
0.00207624548215586
0.00220847083252974
0.00240869128505158
0.00271670903744804
0.00313986811354992
0.00366272138310678
0.00424914773218213
0.00486253193330581
0.00545648614514192
0.00597914128727451
0.00638120469900969
0.00662616588319658
0.00668104052875472
0.00652503725725832
0.00616342890917171
0.00562840664725433
0.0049598191083457
0.00420681546591439
0.00344705406494137
0.00284088861536215
0.00282497769261401
0.00387446873732981
0.00535988515651733
0.00687731532090919
0.00870012134250195
0.0108434289539464
0.0131334430895195
0.0153842208305919
0.0174531156314131
0.0192737426187788
0.020839098497892
0.0221715847087685
0.0233025626380521
0.0242634670574435
0.0250822444402998
0.025782145127623
0.0263818045187649
0.026895872937123
0.0273358266197598
0.0277107393679179
0.0280279802517911
0.0282935098888236
0.0285122651985737
0.0286885825993987
0.0288263315596449
0.0289290626555139
0.0290000443410114
0.0290421806339284
0.0290579579234633
0.0290495063921594
0.0290185556791201
0.0289664937544164
0.0288943654940328
0.0288028646507314
0.0286923850904366
0.028563013432416
0.0284146228673518
0.0282468232398394
0.0280590529713517
0.0278506699578994
0.0276209041320497
0.0273688721615434
0.0270936716449787
0.0267944608464587
0.026470489869602
0.0261211043380592
0.025745741886619
0.0253439597819688
0.0249154204097434
0.0244598051979312
0.0239767486237831
0.0234659420898512
0.0229275931020179
0.0223624622464942
0.0217716205710093
0.0211561422125434
0.0205173050859572
0.0198561353873949
0.0191741117390711
0.0184721570432784
0.0177523118603594
0.0170147387743982
0.0162630781508318
0.0154987561991172
0.0146978470495629
0.0140643535329509
0.0138635686129408
0.0139641326903305
0.0142141554483562
0.0145258854812887
0.0148715352031929
0.0152350185779363
0.0155981787569114
0.0159339302917898
0.016226529894528
0.0164669582781213
0.0166462429764742
0.0167563032441196
0.0168178333225988
0.0168637118720731
0.0169173418876172
0.017005516205278
0.0171631464559939
0.0174348977426787
0.0178406716926666
0.0184170282242253
0.0192103890401896
0.0201937283043202
0.0210799050801743
0.0211737577987087
0.0199007464498179
0.0172826719996605
0.0154623705626945
0.0163602916719507
0.0183496212282223
0.0232693165542805
0.022791037775441
0.0124770388571621
0.00400150698874466
0.00227001006129369
0.00233636241912304
0.00250238578268968
0.0027223903395002
0.00304723004475093
0.00348702087056201
0.00402511578686495
0.00462534796061577
0.00525094340610198
0.00585597354267564
0.00638895380189446
0.00680019347512151
0.00705122816888365
0.00710778413686552
0.00694860494410843
0.00657933413778438
0.00603399328545669
0.005356790365044
0.00460007796297602
0.00384797077866094
0.00327567209245859
0.00336519852050998
0.00458663297367141
0.00623848733752654
0.00789258765442209
0.00983728095514839
0.0121116337825614
0.0145328073091621
0.0168964464585968
0.01906040534691
0.0209644417436007
0.0226043635299887
0.0240027253049141
0.0251907292684989
0.0262000430102692
0.0270592110881906
0.0277922634049789
0.0284186253446253
0.0289536535902381
0.0294094097698022
0.0297954256229591
0.0301194260060578
0.0303876245166914
0.0306053025473677
0.0307771175882221
0.0309072385848079
0.0309995044043458
0.0310574628021393
0.0310842643748101
0.0310826116531158
0.0310548487518783
0.0310029083150462
0.0309283639458828
0.030832430227476
0.0307159495640602
0.0305794446735947
0.0304231109341779
0.030246914660658
0.0300505418562916
0.0298334863419776
0.0295951589347226
0.0293348357808421
0.0290516645923193
0.0287447666486008
0.0284133243023375
0.0280566108642637
0.0276739866725688
0.0272648881011499
0.0268288544764585
0.026365520586775
0.025874536694695
0.0253555311813928
0.02480835685649
0.0242335476584265
0.0236320977954391
0.0230052407763366
0.022354222452004
0.0216805100372626
0.0209854039054517
0.0202706711141275
0.0195376971270359
0.0187890006803857
0.0180256439095829
0.0172517966964803
0.0164694445828204
0.0156588241688608
0.0150053775092859
0.0147600467324499
0.0148210000802157
0.0150475046594084
0.0153502167257651
0.0156962742376614
0.0160608768970096
0.016426393699269
0.0167694840848029
0.0170742554848445
0.0173294821682207
0.0175259490071024
0.0176558084842456
0.0177354956261742
0.0177962449516534
0.0178606626838035
0.0179570807372144
0.0181190483197816
0.0183972845986736
0.0188407997776575
0.0194867990201309
0.0203806095799098
0.0214756169545316
0.0223982054159842
0.0226044667541329
0.0214480458022855
0.018985428716638
0.0168063655049491
0.0171263713010751
0.0176471713449527
0.0221238844537009
0.0242560373872939
0.0154525835199257
0.00534288620826728
0.00262972956432261
0.00257385218705078
0.00277089970692469
0.00301115987003907
0.00335022138503715
0.00380337001192091
0.00435372587236616
0.00496538313437254
0.00560152032514488
0.00621653767216493
0.006758985314649
0.00717858306101192
0.00743507066301366
0.00749313123003117
0.00733142185529766
0.00695644602664392
0.00640428492299048
0.00572377230518623
0.00497144192459484
0.00423993979993233
0.00372360322901261
0.00394649525160294
0.00534382611733607
0.00713723883409785
0.00889732165979531
0.010959223026491
0.0133646751891818
0.0159077528785542
0.0183734473610689
0.0206251746956267
0.0226082916736164
0.0243199603689209
0.0257820631643458
0.0270252526034587
0.0280812411611652
0.0289790892568505
0.0297435797650053
0.0303949274337358
0.0309492037359019
0.0314190665788438
0.0318145144174026
0.032143623286569
0.032412885174408
0.0326279305288308
0.0327937295884025
0.0329147410190221
0.0329950795631357
0.0330385625457695
0.0330485889567821
0.0330280888725969
0.0329796338565755
0.0329053737982088
0.0328070827491516
0.0326861605035226
0.0325436141106553
0.0323801108750328
0.0321959695378829
0.0319912634849038
0.0317657669641011
0.0315190397255686
0.0312505544795343
0.0309596399770306
0.0306454785485536
0.030307216575185
0.029944059911339
0.0295553017125486
0.0291403097361574
0.0286985084158497
0.0282294065999677
0.0277325971629329
0.0272076817951138
0.0266542956614896
0.0260725084171907
0.0254631296857362
0.0248273075004996
0.0241663887828921
0.0234817524821903
0.0227750137870548
0.0220476987438119
0.0213018098430137
0.020539126098953
0.0197625581568819
0.018973949238104
0.0181779091144686
0.0173771349019823
0.0165555046011752
0.0158826565641993
0.0155958282000611
0.0156177262043446
0.015819828089072
0.0161127275561965
0.0164590917139947
0.0168248878084399
0.017193085172661
0.0175435603855175
0.0178603237660079
0.0181301969946479
0.0183441053817988
0.0184936246763432
0.0185905476566549
0.0186649602777249
0.0187383181889198
0.0188406504730519
0.0190045622650361
0.0193145263443849
0.0198252862143551
0.0205734793067373
0.0215842125957033
0.0228015486643234
0.0237783246842001
0.0239550603757803
0.0228964655824511
0.0205576410023193
0.0182580865837588
0.0181992376224752
0.0176834095187393
0.0208379154759835
0.0248610806910041
0.0183487422262771
0.0070810928715261
0.00309496513149138
0.00280052613469037
0.0030184125441481
0.00327986314860663
0.00363119655944525
0.0040949739756022
0.00465523355274042
0.00527650616129094
0.00592192344693862
0.00654602451759918
0.00709707821182137
0.0075240296195777
0.00778495841674097
0.00784375945783985
0.0076794339638837
0.00729991740225829
0.00674391792978194
0.0060651395999588
0.00532539681263748
0.00462795535817876
0.00419083289866011
0.00457281644156145
0.00613991343943715
0.00804236060587755
0.00988631930396142
0.0120699463054241
0.0146057552584822
0.0172616105047314
0.0198208239921423
0.0221551165245348
0.0242144039678377
0.0259960004913032
0.0275205074221322
0.0288177360540274
0.0299192982159972
0.0308547067914559
0.0316494805732247
0.0323246287437032
0.0328969498510315
0.0333797122288722
0.0337833942151026
0.0341164089449064
0.0343855594928123
0.0345968195399463
0.0347554651844494
0.0348662370920381
0.0349335171281003
0.0349613876559802
0.0349535009538541
0.0349130252818737
0.0348427718354703
0.0347451209243573
0.0346220611996814