/*--------------------------------*- C++ -*----------------------------------*\
  =========                 |
  \\      /  F ield         | OpenFOAM: The Open Source CFD Toolbox
   \\    /   O peration     | Website:  https://openfoam.org
    \\  /    A nd           | Version:  7
     \\/     M anipulation  |
\*---------------------------------------------------------------------------*/
FoamFile
{
    version     2.0;
    format      ascii;
    class       volVectorField;
    location    "1000";
    object      U;
}
// * * * * * * * * * * * * * * * * * * * * * * * * * * * * * * * * * * * * * //

dimensions      [0 1 -1 0 0 0 0];

internalField   nonuniform List<vector> 
15600
(
(-0.0467730445726469 -9.63335724950461e-05 -1.28609580995334e-21)
(-0.0298140442059297 0.00022919663064365 -2.71191069282512e-18)
(-0.0247945378040956 0.00245788373651965 0)
(-0.0272546065470109 0.00671929120047298 -2.24043853157432e-17)
(-0.0174922596691756 0.00784432020720218 -2.63878693884706e-21)
(-0.0132921779326776 0.00803527179982997 -5.55220305812881e-21)
(-0.00985986916699575 0.00699413539661482 -4.25214239788067e-17)
(-0.00744318352356575 0.00576602437868172 4.33943252964597e-17)
(-0.00559563140712378 0.00463001188232841 -1.26365312341155e-14)
(-0.00493059528334643 0.00419932518413542 -1.32155951750986e-14)
(-0.00476172595434651 0.00405955799489959 1.21388503330175e-20)
(-0.0052680062373196 0.0043976270214999 -2.55691666714886e-20)
(-0.00597165203887225 0.00486842562536926 2.68203787198572e-20)
(-0.00663992204190193 0.00528651076702438 -5.73415536839026e-17)
(-0.0068725001582685 0.00537218497579532 -5.98183087199575e-17)
(-0.00628498492090634 0.00487392275698382 -6.06101550976531e-20)
(-0.00451848174562262 0.00354668784748933 -6.42900398025466e-17)
(-0.00159083196784167 0.00142417425878612 1.34238087763914e-16)
(0.00216626488088434 -0.00114482803873827 -6.96747909413668e-17)
(0.00633630099279039 -0.0037157117823813 -7.25336653793354e-17)
(0.0102863092251793 -0.00572970190169851 7.52214745321254e-17)
(0.0133153286676447 -0.00669222760626573 -7.82289872595948e-17)
(0.0147449268427367 -0.00643204687122388 1.41269478919118e-22)
(0.0140882778115584 -0.00512237944493347 8.43594620675566e-17)
(0.0114167166583415 -0.0032577693987297 0)
(0.00756428834654547 -0.00151918837283528 0)
(0.00426497187447056 -0.000477981177891304 -6.69979683937603e-15)
(0.00327291631443918 -9.9544641437711e-05 -6.9000060461666e-15)
(0.00524255765380549 -5.70740248473313e-05 2.19657782992658e-23)
(0.00895653404435096 -0.000113780474749318 6.48067838589329e-31)
(0.0124280411426827 -0.000147440308294654 0)
(0.0144391313444409 -0.00019658700646277 -7.57057738519684e-15)
(0.0138542875085453 -0.000286084099829711 -7.65463608442503e-15)
(0.00894819957221248 -0.000357452870082326 0)
(-0.00120661761837297 -0.000329875906146008 0)
(-0.015076892035878 -0.000230087183494992 0)
(-0.0298287573792007 -0.000116706543063482 0)
(-0.0434862208248653 -2.98450770466327e-05 -7.76469589947711e-20)
(-0.0552089653611358 2.50603768579644e-05 6.24509428636441e-15)
(-0.0649557018361997 5.78739696371576e-05 6.15392363993009e-15)
(-0.0730036061378177 7.92527293256886e-05 -7.20856711444339e-20)
(-0.0797009566694713 9.52183944341679e-05 -7.08909169807508e-20)
(-0.0853498184740437 0.000108734181035638 6.99728449623311e-20)
(-0.0901848407440566 0.000120868652238208 -6.92999800035779e-20)
(-0.0943750962659047 0.000131953839058329 6.86406051701943e-20)
(-0.0980376891791011 0.000141711955888491 0)
(-0.101251995414739 0.000150034416899957 -5.86052770022453e-15)
(-0.104076289692383 0.000156944145990302 -5.87841836199738e-15)
(-0.106552222331244 0.000162333178705016 -6.75571772759365e-20)
(-0.108707797988585 0.000166095438710716 3.36811011736388e-20)
(-0.110561772611256 0.000168093947574681 -3.384162484584e-20)
(-0.112127035549216 0.000168311355941849 6.76271011019653e-20)
(-0.11341235172655 0.000166643942821064 -5.63660885881482e-15)
(-0.114417889215768 0.000162896155009294 -5.67660547581821e-15)
(-0.115137860302048 0.000156941438620184 -1.70362561864633e-20)
(-0.115570258370208 0.000148979785264111 0)
(-0.115714837711705 0.000139029565122628 1.00717366220539e-30)
(-0.115571583529611 0.000127228081536306 -8.74763660967492e-21)
(-0.115139361515988 0.000113583863927426 1.31614171009681e-20)
(-0.114415507640324 9.81340911078187e-05 -4.41474892551815e-21)
(-0.113398740903895 8.10084869729654e-05 0)
(-0.112087569375859 6.22290268821313e-05 9.09194339026959e-21)
(-0.110481034667492 4.19914588052424e-05 -9.11842138236534e-21)
(-0.108579671611999 2.03454328026751e-05 1.07968847897173e-30)
(-0.106384254639396 -2.5184068090728e-06 0)
(-0.10389839579532 -2.64191998635086e-05 -1.91576986616973e-20)
(-0.101126897273007 -5.11910907032132e-05 1.92636958872328e-20)
(-0.0980768172944144 -7.66092631701928e-05 0)
(-0.0947580224432475 -0.000102450390089368 0)
(-0.0911833049177312 -0.000128471284164942 0)
(-0.0873687542193357 -0.000154412138957338 0)
(-0.0833339835000335 -0.000180023022697586 0)
(-0.0791025470175058 -0.000205023046464028 7.17163482477469e-15)
(-0.0747024332345693 -0.000229143097785827 1.45730050517216e-14)
(-0.0701658920483764 -0.000252120501806226 7.40187325922615e-15)
(-0.0655292575147985 -0.00027370567502861 -1.81873769452033e-19)
(-0.0608310091677179 -0.000293794546013874 9.23618461387827e-20)
(-0.0561099410569575 -0.000312342332861234 -9.49747092426585e-20)
(-0.0514055474779417 -0.00032937027856192 9.61056399843697e-20)
(-0.0467611306586639 -0.00034477171589738 8.23544167854665e-15)
(-0.042222324892523 -0.000358726432056765 8.31345741622507e-15)
(-0.0378419327877701 -0.000371013861297069 -1.0187425671931e-19)
(-0.0336727221093111 -0.000382161062739104 1.04466857658997e-19)
(-0.0297824402349458 -0.000391792922683801 -2.11990928777758e-19)
(-0.0262315887733539 -0.000401202678549158 1.07486774792212e-19)
(-0.0231126326918656 -0.000409458362161704 -2.19699861288318e-19)
(-0.0204829631449402 -0.000418630092360606 4.44636608317262e-19)
(-0.0184755471663774 -0.00042614062761683 -2.24701977612463e-19)
(-0.0171054139499502 -0.000436536131090275 -2.28432915472804e-19)
(-0.0165890353952555 -0.0004427053955425 4.60093177299354e-19)
(-0.0167586971560217 -0.000454779684392245 0)
(-0.0178791707039078 -0.000454940633896452 -2.82957325094334e-23)
(-0.0207812316122261 -0.00102067104164331 0)
(-0.0195684092290387 -0.0023928580020065 2.32944324266966e-19)
(-0.0153812776116475 -0.00282271511655858 -5.98813133533127e-17)
(-0.0105636376853298 -0.00236880540036008 -9.5512659485191e-22)
(-0.00469821459184945 -0.000730726079677214 -1.15914431766434e-16)
(0.00159923933030267 0.00198952658974028 -1.12954334889466e-16)
(0.00879107462978374 0.00602879604974693 1.06866154965734e-16)
(0.0174049957023016 0.011670393812365 -1.00632749878814e-16)
(0.0267302953246293 0.0184039890066528 9.49540449685594e-17)
(0.036159085802072 0.0256039964167229 8.9872729663293e-17)
(0.0454246028258333 0.0328278029733175 0)
(0.0544421036785454 0.0397382591328303 0)
(0.0620845678109152 0.0454817036815576 -7.79352910150292e-17)
(0.0683379713456135 0.0503782843481422 -7.45540148474842e-17)
(0.0746436708278387 0.0555337733425242 -7.10263138208617e-17)
(0.0817472999452142 0.0615341436322159 -6.72718990572586e-17)
(0.0903427548124149 0.0689390638366948 -6.32402782756769e-17)
(0.101965701774679 0.0788907975934108 5.87250863044811e-17)
(0.120194019852314 0.0932470853895016 5.37703691360877e-17)
(0.145436200126056 0.110153392305015 -4.88840654366096e-17)
(0.176978381144813 0.127111521627238 4.39392874269255e-17)
(0.219514824389951 0.143425784224901 3.88602367299705e-17)
(0.271933672247324 0.151668594259228 -3.36767084472044e-17)
(0.312630971109865 0.132027067060571 0)
(0.252369273564255 0.066073354126629 1.31692834430125e-17)
(0.105603436814262 0.0137097892311031 0)
(-0.014083571798897 0.000552740277930521 -2.23363257444694e-18)
(-0.0561531000076883 -9.63970153533619e-05 0)
(-0.0558006501800221 -0.00100474008704697 0)
(-0.0251274102067962 -0.000745557597998158 1.49841289008228e-22)
(-0.0353908407145285 0.00472526966508001 -7.86264557210435e-21)
(-0.0599718890051356 0.0163620050448537 2.3327192069713e-14)
(-0.0470473446299716 0.0216614175634351 2.13508695222105e-14)
(-0.0367245385325975 0.0226973535275167 -6.3431001336005e-17)
(-0.0275128689295384 0.0199897474654994 4.3446443112367e-24)
(-0.0212139174083989 0.0167930293368513 -6.55546018408204e-17)
(-0.0166779418761083 0.01388430441948 1.92527073092087e-14)
(-0.0151480767496165 0.0128280681604737 2.00009564755172e-14)
(-0.015018468958057 0.0125899639366225 -3.67286272392971e-20)
(-0.0165426690943954 0.0136030212151569 3.84652590800003e-20)
(-0.0185172896315818 0.0149260735366433 -4.00430891317338e-20)
(-0.0202454222378439 0.0160018742773866 -8.51873220295538e-17)
(-0.020744965270467 0.0160812885947118 1.76651865911007e-16)
(-0.0191504493154408 0.0145429026454059 -8.86491626923819e-20)
(-0.0147720579453182 0.0108437228895872 9.3601645983528e-17)
(-0.00774048030785376 0.00513876663863821 -9.74531876652924e-17)
(0.00122729210265899 -0.00167519099472118 1.95972274480072e-19)
(0.0113310440517071 -0.00850293286947787 -1.98291696298303e-19)
(0.0213648014320302 -0.0140016656984057 -1.02369699686809e-16)
(0.0299158791669182 -0.0169434141426744 1.04843422327921e-16)
(0.0353902195501906 -0.0167952474024542 1.09041679816015e-16)
(0.0362762030615315 -0.0138054307058267 -2.2110608446412e-19)
(0.0319405189021026 -0.00906519859099473 5.8711979950377e-17)
(0.0234489293687597 -0.00434496062206264 -6.20549150087361e-17)
(0.0147104709758379 -0.00142791178313137 9.61486680285159e-15)
(0.0107761743487533 -0.00047300822829235 9.94921972029073e-15)
(0.0136758613694767 -0.000553848158440474 -6.28055795721829e-23)
(0.0199823302705542 -0.000690663332903998 -9.00253113026116e-31)
(0.0251280585757081 -0.000522605030822655 0)
(0.02537981335821 -0.000143840083041575 1.06208849562011e-14)
(0.0153752590381534 0.000511209430139968 1.02659601696406e-14)
(-0.0097291998641158 0.00154302738218442 4.32653008815797e-19)
(-0.0479034336714262 0.00257506021993768 -1.81582032057729e-19)
(-0.090508106147627 0.00305108452454645 -1.54164010724552e-19)
(-0.129434960539071 0.00295320095352285 1.37249408312294e-19)
(-0.161488930269505 0.00255967833129655 9.11407672154101e-31)
(-0.186789022185925 0.00211186231488012 -4.91003518469932e-15)
(-0.206613900201816 0.0017179378718918 -4.62103268997394e-15)
(-0.222271609747699 0.00140434794451054 0)
(-0.234809102575467 0.00116311157271332 5.20708470977878e-20)
(-0.244980030003218 0.000978100613347511 2.12863540384177e-23)
(-0.253310339912399 0.000833720903937269 -4.98310582428293e-20)
(-0.260158729964113 0.000717808422938673 -4.91323592551013e-20)
(-0.265769709371985 0.000621192234411275 9.70061196233755e-20)
(-0.270311998559857 0.000538251335502045 4.17355706243963e-15)
(-0.273907890298058 0.000465296425011672 4.11821570216011e-15)
(-0.276644752684302 0.00039931793394579 4.74414191399149e-20)
(-0.278583776493922 0.000338210566269958 0)
(-0.27976878005187 0.000280522350443793 -2.37557011919081e-20)
(-0.280233170327107 0.000225445951955888 2.36743118953222e-20)
(-0.28000478285611 0.00017169157834167 3.97245253577447e-15)
(-0.279096273752378 0.000117695000164542 3.97332394758226e-15)
(-0.277508480515127 6.31257294475513e-05 -1.20417358327963e-20)
(-0.275250597198589 8.88472629946829e-06 -8.22616293069136e-23)
(-0.272334167522138 -4.50527853632091e-05 -8.7546577162365e-23)
(-0.268768389115061 -9.85536744398636e-05 1.2237154520232e-20)
(-0.264566907796404 -0.000151934975349622 -3.11565598267615e-21)
(-0.259738396507551 -0.000205280507106759 3.12807761948248e-21)
(-0.254293534303858 -0.000258428652808557 -3.19699378097363e-21)
(-0.248243631684092 -0.000311472952861767 3.21724591504945e-21)
(-0.241601908979032 -0.000364051854317894 1.3196747538671e-20)
(-0.23438415405403 -0.000416184537769612 -1.33126368038697e-20)
(-0.226608254501348 -0.000467472944094037 0)
(-0.218296527121337 -0.000517594581805964 0)
(-0.209474058773158 -0.000566255348355107 0)
(-0.200170239937096 -0.0006129651283041 0)
(-0.19041927078991 -0.000657237105907326 0)
(-0.180260308911712 -0.000698522663588312 0)
(-0.169737838577455 -0.000736210106447898 0)
(-0.158901983469736 -0.000769670074927838 6.52642388728419e-20)
(-0.14780897060827 -0.000798152074245325 -5.56258648126902e-15)
(-0.136521447786763 -0.000820922786005202 -1.15299889308765e-14)
(-0.125107893978828 -0.000837301205305331 -5.98654108187926e-15)
(-0.113641804987295 -0.000846702331443984 -1.48409531997508e-19)
(-0.102199304658804 -0.000848957302664879 -6.37301903084062e-22)
(-0.0908583782376103 -0.000843887694206286 7.96873614107919e-20)
(-0.0797006317366183 -0.000831191941581552 8.35728877235494e-20)
(-0.0688162061567459 -0.000809958389710941 -7.18821268878846e-15)
(-0.0583013566277446 -0.000779857279844876 -7.57688417435024e-15)
(-0.0482683995190949 -0.000739224126292441 9.42082793867471e-20)
(-0.0388330465495851 -0.000688213815814183 0)
(-0.0301458301044016 -0.000624266561797871 2.07587857435254e-19)
(-0.0223457131526843 -0.000548558935749389 -2.16111059892286e-19)
(-0.0156558783863636 -0.000455593026221355 -2.27782581960472e-19)
(-0.0102322564461828 -0.000348784461687271 2.3732874333428e-19)
(-0.00641697347305921 -0.000219507650730631 0)
(-0.00431463632117828 -8.44856262569612e-05 0)
(-0.00443814049928997 7.58908146376701e-05 2.70840472929536e-19)
(-0.00656837844692261 0.000217411908708653 -1.24249431740816e-21)
(-0.0116610414892111 0.000396764866265601 2.79345349725578e-19)
(-0.0194488207689378 -0.000481556758286204 0)
(-0.015607797901619 -0.00264402056809718 -1.594717748479e-22)
(-0.00597172410688401 -0.00214741557338201 0)
(0.0051574595584078 0.000514301862237898 6.81085835382608e-17)
(0.0180093535818269 0.00584983410172805 -1.28071929657186e-16)
(0.0317504881476331 0.0136677260432384 -2.35338834189081e-19)
(0.0471694149607939 0.024415923762672 2.19352995192479e-19)
(0.0651081747606173 0.0386500667608977 2.05500304247835e-19)
(0.0844787109072262 0.0553798733291294 -9.9329041764252e-17)
(0.104448198874941 0.0733243058201984 -1.94993252577138e-19)
(0.124555309372039 0.0914976697446299 -8.96348922729441e-17)
(0.144666938351677 0.109135608463345 0)
(0.162964302283432 0.124534312538188 0)
(0.178937726999661 0.138126584332754 8.10037561553002e-17)
(0.194327895191497 0.152026049935648 7.8057566536322e-17)
(0.210674399118871 0.167710899851375 7.47204452098653e-17)
(0.229520760689948 0.186564249843764 5.48151785531503e-20)
(0.253648306777708 0.21103367106953 -6.58474964467231e-17)
(0.289479840552546 0.244894121720277 -1.19903357870553e-16)
(0.339884136317307 0.284533135051886 0)
(0.405423593640889 0.324129324841634 0)
(0.493130017398151 0.360276620734427 -4.04830384413196e-17)
(0.603567483666088 0.377869037618401 -3.3886985335509e-17)
(0.712822198240146 0.341243241839104 2.96814087128953e-17)
(0.678044757246561 0.203542050534011 -1.23877230238804e-17)
(0.425671341348456 0.0652818735319686 0)
(0.100805920204097 0.0100089811447562 0)
(-0.0631901550145154 0.00160070352269415 0)
(0.0146515808795537 -0.00150744481690878 0)
(0.0380371141018647 -0.00285754103569094 2.96050415852499e-18)
(-0.00301579166324003 0.0027434397602113 0)
(-0.0695756038548423 0.0196733234700634 -2.16197176271535e-14)
(-0.0715419289733918 0.0326998779532814 -2.11927296386181e-14)
(-0.0578753124825963 0.035176831529693 6.31683609798322e-17)
(-0.0439150140447476 0.0313805503805532 0)
(-0.0345550844710828 0.0269698000526044 8.05519147570323e-21)
(-0.0280186919647259 0.0231242923567655 -6.89233140490746e-17)
(-0.0258950092368313 0.0218663437385024 7.23935118074653e-17)
(-0.026003722101742 0.0218393764787562 9.46128898933448e-24)
(-0.0284891884677987 0.0235260103942566 -3.80156481406218e-20)
(-0.0315533570590199 0.0255274038450882 0)
(-0.0340449253450308 0.026932285988345 8.10845618361874e-17)
(-0.0345678771050329 0.0266779747306149 -1.22768130439159e-22)
(-0.0320137450736888 0.0239899122169811 -7.92731870581435e-20)
(-0.0256627587048496 0.0183147070961036 7.80203853445515e-20)
(-0.0158633995891973 0.0100241992606949 0)
(-0.00358375228427802 0.000359184694308732 0)
(0.0102311649710896 -0.00926170639660631 0)
(0.0242435701358968 -0.0171761315910926 0)
(0.0368996389588022 -0.0218471819145425 -8.00750843797551e-17)
(0.0463559930948837 -0.0225107135457908 -8.4463025877936e-17)
(0.0505719868083718 -0.0192586129561588 1.79447097487508e-19)
(0.0479134098915574 -0.0131722504767146 -1.9090366064205e-19)
(0.0384021775596138 -0.00648356947877787 1.06156656569609e-16)
(0.0262467493172342 -0.0020351057875616 5.86325207830343e-17)
(0.0189437468141143 -0.000617397935641225 2.50610106900459e-19)
(0.019908113883609 -0.00102866602628866 5.70319853329671e-23)
(0.0238875617596997 -0.00126583278503438 0)
(0.0249791828643857 -0.000627342782021556 0)
(0.0166121307552153 0.000956666676676048 0)
(-0.0111072792685665 0.00357520651341916 0)
(-0.0599607690799376 0.00644053439250138 0)
(-0.118007020652272 0.00818188240033278 0)
(-0.172042112893602 0.008217049133895 0)
(-0.215565427926029 0.00715572713648057 0)
(-0.248642999783602 0.00580446128336238 0)
(-0.273518602557072 0.00459357019686247 3.17460680273601e-20)
(-0.292404823459507 0.00363257419775896 -3.02447633735259e-20)
(-0.306943675352771 0.00290196162379549 2.9023943665745e-20)
(-0.318272864557062 0.00234888832930741 -2.81288966611812e-20)
(-0.327155169284434 0.0019235649565429 0)
(-0.334102947216008 0.00158704040085149 0)
(-0.339460320238131 0.00131153622730245 2.64030276948865e-20)
(-0.343461862340696 0.00107750598880887 5.53158153292261e-23)
(-0.3462717025244 0.000872797652983892 -2.57055091609347e-20)
(-0.348009462299863 0.000689306767205609 0)
(-0.348761286592106 0.000520702426785935 0)
(-0.348589136072416 0.000362580175176108 0)
(-0.347538478406331 0.000211905249143403 0)
(-0.345642895229745 6.69366525838954e-05 0)
(-0.34293184686798 -7.44006405736451e-05 1.26121234900193e-20)
(-0.339433894513138 -0.000214303625774811 -1.25400788804114e-20)
(-0.335169115138841 -0.000353231505488762 -6.31460251327985e-21)
(-0.330153044269066 -0.000490215393834884 -4.29447332412324e-23)
(-0.324402960061003 -0.000625575779928954 -4.55302821385259e-23)
(-0.317934798491667 -0.000758998292671466 6.34630878581942e-21)
(-0.310764644684167 -0.000890762514232913 0)
(-0.302909058202008 -0.00102097212256932 0)
(-0.294386054601834 -0.00114925139043397 0)
(-0.285214521789008 -0.00127556546968947 0)
(-0.275415636763856 -0.0013991768584585 6.71019781632192e-21)
(-0.26501289685269 -0.00151988867662288 6.16083618597809e-23)
(-0.254032243046926 -0.00163685390660829 -6.8401969921692e-21)
(-0.242503771854203 -0.00174934483058633 0)
(-0.230460322719862 -0.00185665837823763 -1.42825190996946e-20)
(-0.217938892882583 -0.00195777051675174 1.44195543380091e-20)
(-0.204981058742696 -0.00205165061707471 -1.48578168262996e-20)
(-0.191633146865804 -0.00213717743264732 -1.42580260016844e-22)
(-0.177946472972782 -0.0022131302722419 -1.56947767510647e-20)
(-0.163977651851845 -0.00227824941210961 3.15986247600653e-20)
(-0.149788943152478 -0.00233110380367093 0)
(-0.135448475135973 -0.00237031025853836 0)
(-0.121029647529006 -0.00239463408939254 3.47519395351785e-20)
(-0.10661029145577 -0.00240304494208861 3.04626486459533e-22)
(-0.0922707835901151 -0.00239509203084251 -3.68342384823059e-20)
(-0.0780943065195956 -0.00237016331421681 -3.85092352661842e-20)
(-0.0641686688474526 -0.00232722986460387 3.97043393608556e-20)
(-0.0505916442100204 -0.00226425788308463 -4.16688736672106e-20)
(-0.0374678807266684 -0.00217978371605638 -3.09913223269445e-22)
(-0.0249212562620497 -0.00207046948132229 4.52160317867151e-20)
(-0.0130805019154277 -0.00193481881535932 9.55666995477112e-20)
(-0.00211580747120905 -0.0017666694424017 6.23800549524308e-22)
(0.00781533973231624 -0.0015629772009139 -1.0346764229887e-19)
(0.0164523740234835 -0.00131434662856212 0)
(0.0235922404505686 -0.00102133785623046 -1.12288946498077e-19)
(0.0288313025813153 -0.00066889599361677 1.17285534880531e-19)
(0.0319539677865008 -0.000271360321830959 1.24906720149701e-19)
(0.0322745390514974 0.000200294826793489 -1.32214093720438e-19)
(0.0297478070627602 0.000693260876725007 0)
(0.0232539914265963 0.00124423181217115 0)
(0.0132663237399443 0.00115500742583942 5.17911267917807e-18)
(0.016144698104538 0.000576195696886128 3.88613528880542e-17)
(0.0262598480554498 0.00350751096308119 1.41810467733519e-19)
(0.0388357893172951 0.00907834642218023 -3.42407254698474e-17)
(0.053466840303251 0.0176930599856929 -9.6666460046268e-22)
(0.069501749360823 0.0292032446425093 0)
(0.0876355945871844 0.0440251217052112 0)
(0.108735717962663 0.0626891795770162 1.12185749325414e-19)
(0.132032138562616 0.0842959743499131 -1.08547242639114e-19)
(0.15677928336184 0.107542003998806 9.41469462615271e-20)
(0.182479811078674 0.131369583287057 5.33621527172229e-17)
(0.208932342122721 0.154896796571891 -5.28238986066302e-17)
(0.234419316510626 0.176545254761999 0)
(0.25792753518192 0.196641288795771 -5.11058408251797e-20)
(0.280654620154777 0.2171249206605 5.09556716217738e-20)
(0.304180626422826 0.239590967304902 0)
(0.330323774526901 0.265642833156616 4.94120863736616e-17)
(0.362166273760615 0.297841594034888 0)
(0.406786855637116 0.339625972563298 4.30264159810044e-17)
(0.469053789506607 0.387065183778047 -4.60830601526292e-21)
(0.550334762984711 0.433211607831228 4.31482908106191e-21)
(0.656832245476242 0.471789517613918 2.91920263231882e-17)
(0.789263557609228 0.48517721918732 2.4223924475577e-17)
(0.930166242009772 0.439787818183134 -4.33278223580778e-17)
(0.960518573647944 0.292673902368942 9.00774463479692e-18)
(0.743187220452066 0.124592778858635 0)
(0.328655659662646 0.0321272434159558 1.78244490198176e-18)
(0.0422739788644671 0.00681518774644566 -1.29339461939708e-21)
(0.132488758295004 0.000341326369831371 1.05514557626289e-21)
(0.124009325174692 -0.00401389469501333 -9.45193034332385e-22)
(0.0583418568747995 -0.000634705105161206 8.68770231890132e-18)
(-0.0530955180696348 0.0178348412876476 0)
(-0.0890106289801817 0.0409189547741104 -6.14029282148195e-17)
(-0.0763516693937889 0.0456514570163971 -6.15292580231685e-17)
(-0.0587824008712976 0.0412802518642851 0)
(-0.0472701235071046 0.0363770924959261 0)
(-0.0394739001131317 0.0323023042475084 6.75500386585979e-17)
(-0.0370234020696153 0.0311745662213656 -7.04879917363207e-17)
(-0.0374667694014484 0.0315126336265965 7.17429670223438e-17)
(-0.0406547595653569 0.033692022834859 -3.50190308161359e-20)
(-0.0443059662394135 0.0359480325039995 0)
(-0.0468742557775421 0.0370728687878299 -6.7767102888904e-17)
(-0.0467939763229944 0.0358915709554589 -6.43881386466562e-17)
(-0.0430370361353292 0.0317483721858519 5.75941400252573e-20)
(-0.0351764500034124 0.0243642804994433 -5.41839776665287e-17)
(-0.0238085428051729 0.014353431761704 -5.04853098406367e-17)
(-0.00995441825974634 0.00307096629569392 4.8515227874183e-17)
(0.00548320293896146 -0.00800169963287242 -4.711589850683e-17)
(0.0212920796602417 -0.0171806823179395 0)
(0.0360266469561788 -0.0228676290454671 4.81662190909884e-17)
(0.0479776002350035 -0.024224464937914 1.02662865558501e-19)
(0.0552069873588737 -0.0212589988326963 -6.0399147601645e-17)
(0.0558085859377237 -0.0149299311908873 -3.39179920843807e-17)
(0.048609433673158 -0.00742443131437229 -3.97411784806821e-17)
(0.0361841330243181 -0.00208273192048799 -2.31174261948621e-17)
(0.0262454282862189 -0.000351243890693638 6.60795957014252e-18)
(0.0228988680982494 -0.00106750546206785 -4.39601506806512e-23)
(0.0209736164912946 -0.00118921414223319 -1.49621956335676e-19)
(0.014200725311886 0.000351644965193212 -1.45770952528729e-19)
(-0.0063970571810215 0.00384091263260417 0)
(-0.0499583083590584 0.0087489743470634 0)
(-0.110851692365649 0.0129072186134239 -7.24521011617615e-20)
(-0.172603363850284 0.0144321559524454 5.79409416490902e-20)
(-0.223947471539624 0.0133401957186849 -4.8625395529541e-20)
(-0.262794417646084 0.0110340690004906 4.31108209027721e-20)
(-0.291630943477719 0.00868607066024821 0)
(-0.313205614149316 0.00675100185796857 0)
(-0.329567873255555 0.00527020041957465 0)
(-0.342109369554957 0.00415929293781714 0)
(-0.351768772633798 0.00331897730112414 1.59701608258502e-20)
(-0.359174569383266 0.00266842278856544 -1.55112103911551e-20)
(-0.364753112034224 0.00214831925043268 -1.51536972183855e-20)
(-0.368795347195285 0.00171761873112145 2.96944500118583e-20)
(-0.371503555693168 0.00134810546595956 -1.45888657294411e-20)
(-0.373022689588093 0.00102213701256864 0)
(-0.373460570457912 0.000727837561604822 0)
(-0.372896275287596 0.000456034985074951 0)
(-0.371388062704045 0.000200352840409496 0)
(-0.368980190587682 -4.35609826502103e-05 -6.9893687905591e-21)
(-0.365710822742405 -0.000278147946126581 -1.56003421919911e-15)
(-0.361608511346773 -0.000505759323691779 -1.56024839216649e-15)
(-0.356696964888167 -0.000728998580708611 -6.86581032350158e-21)
(-0.351001361054581 -0.000949095290562991 -6.89660834587801e-21)
(-0.344543716070089 -0.00116528134613314 6.85021879800573e-21)
(-0.337342627100927 -0.0013778998483656 0)
(-0.329415860060434 -0.00158666171571856 0)
(-0.320781569253596 -0.00179179787701632 0)
(-0.311458476759829 -0.00199331422315466 0)
(-0.30146676395178 -0.00219069199702741 0)
(-0.290827482502203 -0.00238377882287345 0)
(-0.279564041825808 -0.00257155217205781 0)
(-0.26770208071454 -0.00275362640435234 0)
(-0.255269645715146 -0.00292879533543394 0)
(-0.242298859349599 -0.00309599094028489 0)
(-0.228824592402801 -0.00325417426263318 -7.52935007023075e-21)
(-0.214885677313076 -0.00340188287484133 1.71963625609698e-15)
(-0.200525393781118 -0.00353762385914198 1.74164757178387e-15)
(-0.185791668023811 -0.00365979375030995 -7.85271452157098e-21)
(-0.170737211712196 -0.00376666249066257 1.61760326985179e-20)
(-0.155419805691689 -0.00385644098742497 -1.6377907017383e-20)
(-0.139902523199824 -0.00392713628133246 1.69195181937573e-20)
(-0.12425391334897 -0.00397682454942311 -1.71928270927876e-20)
(-0.108547460401749 -0.00400381291921715 0)
(-0.0928607097861088 -0.00400672052462271 1.83330813188438e-20)
(-0.0772736482447951 -0.00398483285749849 -1.87435543898279e-20)
(-0.0618692949953104 -0.00393713753143498 0)
(-0.046735259483547 -0.00386189265978645 0)
(-0.0319689187061092 -0.00375614206733363 0)
(-0.0176742248044164 -0.00361728946598104 0)
(-0.00397418277411782 -0.0034404145369073 0)
(0.00900310074849551 -0.00322139574605986 0)
(0.0210847224919502 -0.00295184893514178 0)
(0.0321059399688294 -0.00262542615903726 -5.04409704688249e-20)
(0.0418225359921331 -0.00222936425568042 1.04885737100652e-19)
(0.0500318532398024 -0.00175854004784692 -1.09994720474681e-19)
(0.0563552252016774 -0.00119271582230283 5.79404661915585e-20)
(0.060547576345689 -0.000535488698505238 0)
(0.0619325019879748 0.000248616142846572 0)
(0.0603204218240549 0.00111680683800512 0)
(0.0546428209260023 0.00207433275165413 -7.67684540611623e-20)
(0.0449897892276169 0.00275859312648412 -5.1713892655331e-18)
(0.0455528022729791 0.00365543862026462 -9.89309046836638e-18)
(0.0540806890462887 0.00829474594341238 1.85419175874356e-17)
(0.0659823482351987 0.0157398988679029 6.88386854062773e-20)
(0.080383719795226 0.0262913978387281 6.7396296516394e-17)
(0.0966191863615412 0.0397998202051423 -6.37320581645647e-20)
(0.115204493548257 0.0566074520004685 6.13214677744734e-20)
(0.136895910586018 0.0771672984717054 3.04856171443769e-17)
(0.161179854004099 0.100705128554729 -2.98079685511034e-17)
(0.187413237738459 0.126011476676859 -2.95594729677497e-17)
(0.215137780124979 0.152085110003678 -5.73510381011492e-20)
(0.244129755730615 0.178060825827259 7.16341769391411e-20)
(0.272964106002551 0.202677192989018 -2.92829688937728e-20)
(0.300511475148001 0.226306745203181 5.98016529389843e-20)
(0.327587553489424 0.250659937863185 -3.10172250002595e-17)
(0.355565814838085 0.277185730129603 3.01631739342352e-20)
(0.386176644716653 0.307389754973272 -3.07572487382251e-17)
(0.422303436545752 0.343486071430533 -1.42905888453594e-20)
(0.470573838611829 0.38791245131204 1.36801507151375e-20)
(0.53677525550274 0.436580287622676 2.99387709180429e-21)
(0.622655712625041 0.48226974128125 -2.82374660093085e-21)
(0.733271555294401 0.517222213743603 0)
(0.868926489214203 0.523483258594383 0)
(1.01576592002228 0.470753001925303 -8.27868895993492e-20)
(1.09058668683218 0.330027028589938 -6.33061734761492e-18)
(0.969410631088498 0.168489304955495 0)
(0.585962938449318 0.0596328257442563 -1.2501495930675e-18)
(0.237741066376397 0.0175990941291747 0)
(0.277530614756306 0.00550269007898488 0)
(0.216989995515008 -0.00337523006906394 1.46481515258155e-18)
(0.125958782179944 -0.00301307224414899 9.02897834609835e-22)
(-0.0180238673225178 0.0135659498882888 3.80806652041641e-21)
(-0.0964316838248086 0.045772099592246 5.12329674918831e-17)
(-0.0915961002510299 0.0540498994022591 5.69031954201083e-17)
(-0.0717049537688057 0.0495024585722107 0)
(-0.0588776912153602 0.0447249187019488 0)
(-0.050479669219335 0.0409942430515279 6.16458501046614e-17)
(-0.0478494834410197 0.0401809488597533 6.31080674793641e-17)
(-0.0484308621207187 0.0407646349316474 -6.1694750545039e-17)
(-0.0516628333751858 0.0429124777242996 0)
(-0.0549669516635918 0.0446543549067044 -5.37461676908523e-17)
(-0.0566908767328007 0.0447420448110346 2.60272313443649e-22)
(-0.0554783548236512 0.0422062611500313 -4.29188899052065e-17)
(-0.0506086469914543 0.0366907460627313 3.70952881451918e-17)
(-0.0418842196272665 0.0281370132627724 2.01113736192686e-21)
(-0.0299032964392694 0.0171895292185392 2.961109522819e-17)
(-0.0155531835075501 0.00512542141715309 -2.78426260607974e-17)
(0.000369402399051235 -0.00661535732092881 5.41524351457342e-20)
(0.0167935212533202 -0.0163874860730583 -5.28973007038942e-20)
(0.0323557586093935 -0.0225661898030903 0)
(0.0454463910543834 -0.0242601614537236 3.11738129635305e-17)
(0.0542767488462522 -0.0214344295874769 3.66677791431589e-17)
(0.0571201463905313 -0.0150257757557254 0)
(0.0525934571049018 -0.00720011129855687 -2.64371086583297e-17)
(0.0417426147350098 -0.00145620805548986 1.28127166386955e-19)