1 	0.451351328259074 	-2.42861286636753e-17 	1.02601335635424 	2.8663529066711e-05 	1076.40638548009
1 	0.457856884621384 	-2.77555756156289e-17 	1.02599018850833 	0.000245023074218932 	328.557650908487
1 	0.464597494115859 	-2.77555756156289e-17 	1.02596773752116 	0.000966527170183996 	96.990905371349
1 	0.471581531993916 	-3.46944695195361e-17 	1.02594952231336 	0.00228204957452368 	44.3076708552994
1 	0.478817663648872 	-4.16333634234434e-17 	1.02593893269289 	0.00382048940975569 	25.6251721785482
1 	0.486314854099112 	-4.16333634234434e-17 	1.02593897868214 	0.0052816733072539 	17.3184816066608
1 	0.494082377743682 	-3.46944695195361e-17 	1.02594950823405 	0.00660371512706679 	13.0010069682373
1 	0.502129828395864 	-3.12250225675825e-17 	1.02596888374054 	0.00781074794571707 	10.4537694746919
1 	0.510467129600163 	-4.16333634234434e-17 	1.02599547947285 	0.00893546827758396 	8.79807802293493
1 	0.519104545238184 	-5.55111512312578e-17 	1.02602811877117 	0.0100039628952825 	7.64292160463453
1 	0.528052690428786 	-6.24500451351651e-17 	1.02606599353897 	0.0110357618660376 	6.79430663113904
1 	0.537322542727918 	-6.24500451351651e-17 	1.02610852278389 	0.0120458022321317 	6.14677175451037
1 	0.546925453633457 	-6.24500451351651e-17 	1.02615527362575 	0.0130460251570482 	5.63864110074899
1 	0.556873160400326 	-6.24500451351651e-17 	1.02620592682365 	0.0140464705010338 	5.23172361356931
1 	0.567177798171134 	-5.89805981832114e-17 	1.02626026939261 	0.0150560203258816 	4.9013137068054
1 	0.577851912427522 	-4.85722573273506e-17 	1.026318210412 	0.0160829265137356 	4.63091819142741
1 	0.588908471767319 	-3.81639164714898e-17 	1.02637982025683 	0.0171352143130338 	4.40931803095964
1 	0.600360881012588 	-3.12250225675825e-17 	1.02644539516347 	0.0182210228937378 	4.22886072823826
1 	0.612222994653594 	-2.42861286636753e-17 	1.02651555044196 	0.0193489262158886 	4.0844411771216
1 	0.624509130633639 	-2.08166817117217e-17 	1.02659134648665 	0.0205282686834065 	3.97289175369184
1 	0.637234084479704 	-1.73472347597681e-17 	1.02667445197658 	0.0217695472146036 	3.89263373771418
1 	0.650413143783826 	-1.73472347597681e-17 	1.02676734826345 	0.0230848728182289 	3.84351247879495
1 	0.664062103040055 	-2.42861286636753e-17 	1.02687357715063 	0.0244885495351259 	3.82677988013952
1 	0.678197278841898 	-2.77555756156289e-17 	1.02699802917524 	0.0259978156446881 	3.84521501896911
1 	0.692835525445182 	-2.91650384398601e-17 	1.02714580552296 	0.0276371300978037 	3.90447376206829
1 	0.707994250701264 	-3.78386558197441e-17 	1.02732528503385 	0.029436670653419 	4.01314752389996
1 	0.723691432365647 	-4.55364912443912e-17 	1.02755068900416 	0.0314256186643141 	4.18032430071959
1 	0.739945634787164 	-4.64038529823796e-17 	1.02783657328099 	0.0336466121676677 	4.42059094441862
1 	0.756776025983054 	-4.59701721133854e-17 	1.02819863925364 	0.0361509824776044 	4.7529949969481
1 	0.774202395105461 	-4.59701721133854e-17 	1.02865169759413 	0.0389932000831037 	5.19868654588144
1 	0.792245170305166 	-5.03069808033274e-17 	1.02920997109461 	0.0422009360124739 	5.76395283937429
1 	0.810925436998707 	-5.20417042793042e-17 	1.02988621498275 	0.0457619695661875 	6.43178458160616
1 	0.830264956545436 	-5.29090660172926e-17 	1.03068382323985 	0.0496383492707339 	7.18500232517434
1 	0.850286185341601 	-5.3776427755281e-17 	1.0315931057412 	0.0537380898155577 	8.00488523855615
1 	0.871012294339098 	-4.33680868994202e-17 	1.0326043895999 	0.0578010040594981 	8.81302056753747
1 	0.892467188997261 	-3.64291929955129e-17 	1.03370587211173 	0.0614429302053919 	9.48859381995613
1 	0.914675529676922 	-3.81639164714898e-17 	1.03486465561042 	0.064323290800966 	9.95070832568246
1 	0.937662752486865 	-4.33680868994202e-17 	1.0360294159609 	0.066213219394659 	10.143353960571
1 	0.961455090593968 	-4.5102810375397e-17 	1.03714493792532 	0.06707376591296 	10.0318340434934
1 	0.986079596009581 	-4.16333634234434e-17 	1.03816230822213 	0.0670951675226076 	9.61360355334162
1 	1.01156416186612 	-4.5102810375397e-17 	1.03904639674347 	0.0666499307446749 	8.92697251671747
1 	1.03793754519955 	-4.85722573273506e-17 	1.03977802550456 	0.0661659229711935 	8.04998002689017
1 	1.06522939025519 	-4.5102810375397e-17 	1.04035432375307 	0.0659777890032406 	7.081893282513
1 	1.09347025233648 	-4.5102810375397e-17 	1.040789676234 	0.0662346475977613 	6.11860325254706
0.999999999999999 	1.12269162221858 	-3.81639164714898e-17 	1.04111483753081 	0.0669020276844789 	5.23405250186592
0.999999999999999 	1.1529259511513 	-3.12250225675825e-17 	1.04137184253962 	0.0678325761917191 	4.47485118645112
0.999999999999999 	1.18420667647869 	-3.12250225675825e-17 	1.04160746151891 	0.0688517231232567 	3.85909340462468
0.999999999999999 	1.20932909529518 	-2.77555756156289e-17 	1.04180481346631 	0.0696174644288431 	3.46949415443683
0.999999999999999 	1.22578615918077 	-3.12250225675825e-17 	1.0419452911161 	0.0700733653041418 	3.25817349272975
1 	1.25005321751936 	-3.12250225675825e-17 	1.04218316008827 	0.0706443485108393 	2.99943216257166
1 	1.28469102414952 	-2.77555756156289e-17 	1.04258261124893 	0.0712766602709729 	2.70217947746814
1 	1.3205186819877 	-2.42861286636753e-17 	1.04308042911989 	0.0716868023458122 	2.46276007077858
1 	1.3575749113035 	-1.38777878078145e-17 	1.043686318122 	0.0718624631588922 	2.2655630732149
1 	1.39589958614917 	-1.04083408558608e-17 	1.04440716729515 	0.0718000910149374 	2.10008448986349
1 	1.43553376564998 	-1.38777878078145e-17 	1.04524764271097 	0.071501373441982 	1.95912196863723
1 	1.4765197263163 	-1.04083408558608e-17 	1.04621030892664 	0.070971161879119 	1.83756103511527
1 	1.51890099544962 	-6.93889390390723e-18 	1.04729576648295 	0.0702162209541747 	1.73163621955758
1 	1.56272238572095 	0 	1.04850277412911 	0.0692445047635758 	1.6384864519181
1 	1.60803003100759 	1.04083408558608e-17 	1.0498283207986 	0.068064787890338 	1.55588524571265
1 	1.65487142358123 	1.04083408558608e-17 	1.05126765991344 	0.0666865311758724 	1.48207612456194
1 	1.70329545274835 	0 	1.05281432701097 	0.0651198879284636 	1.41567233614516
1 	1.75335244505181 	-3.46944695195361e-18 	1.05446012234766 	0.0633757730323365 	1.35559594075904
1 	1.80509420615134 	2.81892564846231e-18 	1.05619645308214 	0.061464055412978 	1.30109319368733
1 	1.85857406450905 	8.02309607639273e-18 	1.05801591665466 	0.0593944379552296 	1.25169723713042
1 	1.91384691701544 	5.20417042793042e-18 	1.05990231164011 	0.0571864239115592 	1.20695649201436
1 	1.97096927670056 	-6.07153216591882e-18 	1.06177938684894 	0.0548812956843696 	1.16721737073361
1 	2.02024009608346 	-1.04083408558608e-17 	1.063484621639 	0.0528543553796124 	1.13754752975439
1 	2.06000503604194 	-1.04083408558608e-17 	1.06478521381606 	0.0511765146248218 	1.11611737064551
1 	2.09836474743796 	-1.04083408558608e-17 	1.06601391787955 	0.0495794715041549 	1.09848761314277
1 	2.13536888877257 	-1.04083408558608e-17 	1.06717932235342 	0.0480396673068393 	1.08404188779776
1 	2.17106536369584 	-1.04083408558608e-17 	1.06827675464245 	0.0465577736558373 	1.07258153312506
1 	2.20550038302044 	-1.04083408558608e-17 	1.06930874157245 	0.0451335361703036 	1.06394718047981
1 	2.23871852454378 	-1.04083408558608e-17 	1.07027786184787 	0.0437660189678224 	1.0580113324532
1 	2.27076279075613 	-1.04083408558608e-17 	1.07118664220047 	0.0424537951337691 	1.05467321748395
1 	2.3016746645094 	-1.38777878078145e-17 	1.07203777705318 	0.0411950961818634 	1.05385524878807
1 	2.33149416271872 	-2.08166817117217e-17 	1.0728340597304 	0.039987928241571 	1.05550059446825
1 	2.36025988816626 	-2.42861286636753e-17 	1.07357831141483 	0.0388301615303845 	1.05957153693765
1 	2.38800907947441 	-2.42861286636753e-17 	1.07427333760845 	0.0377195985780132 	1.06604841275035
1 	2.41477765931295 	-3.12250225675825e-17 	1.07492189648741 	0.0366540256402501 	1.07492899785364
1 	2.44060028090272 	-3.81639164714898e-17 	1.07552667510426 	0.0356312508844968 	1.08622825357925
1 	2.46551037287586 	-3.46944695195361e-17 	1.07609027224609 	0.0346491322262097 	1.09997838360924
1 	2.48954018255081 	-2.77555756156289e-17 	1.07661518663345 	0.0337055971197792 	1.11622917702368
1 	2.512720817678 	-2.42861286636753e-17 	1.07710380928765 	0.0327986561389234 	1.13504863103975
1 	2.53508228671037 	-2.42861286636753e-17 	1.07755841913986 	0.0319264118031714 	1.15652386172837
1 	2.55665353765073 	-2.42861286636753e-17 	1.07798118114413 	0.0310870638030102 	1.18076232365049
1 	2.57746249552636 	-2.42861286636753e-17 	1.07837414630567 	0.0302789115334808 	1.20789337133199
1 	2.59753609853934 	-1.73472347597681e-17 	1.07873925315327 	0.0295003546532182 	1.23807020786483
1 	2.61690033293929 	-1.04083408558608e-17 	1.07907833028272 	0.0287498922337602 	1.2714722796186
1 	2.63558026666389 	-1.04083408558608e-17 	1.07939309967432 	0.0280261209447256 	1.30830819198267
1 	2.65360008179049 	-1.04083408558608e-17 	1.07968518055122 	0.0273277326279026 	1.34881924021405
1 	2.67098310584102 	-1.38777878078145e-17 	1.07995609359395 	0.0266535115423724 	1.3932836729783
1 	2.68775184198056 	-2.08166817117217e-17 	1.08020726536806 	0.0260023315094858 	1.44202183543786
1 	2.70392799814879 	-2.08166817117217e-17 	1.08044003285216 	0.0253731531476946 	1.49540237553588
1 	2.71953251516198 	-1.38777878078145e-17 	1.08065564798087 	0.0247650213604444 	1.55384974374065
1 	2.73458559382185 	-6.93889390390723e-18 	1.08085528213607 	0.0241770632237577 	1.61785327597223
1 	2.74910672106653 	-6.93889390390723e-18 	1.08104003053706 	0.0236084864123747 	1.68797822572843
1 	2.76311469519732 	-1.04083408558608e-17 	1.08121091649221 	0.0230585783034514 	1.76487920989827
1 	2.776627650214 	-6.93889390390723e-18 	1.08136889548525 	0.0225267059041293 	1.84931666056867
1 	2.78966307929018 	0 	1.08151485907652 	0.0220123167633536 	1.94217704196899
1 	2.80223785741904 	3.46944695195361e-18 	1.081649638606 	0.0215149410486778 	2.04449781068802
1 	2.81436826325886 	0 	1.08177400868852 	0.0210341949949259 	2.1574983863625
1 	2.82607000020648 	0 	1.08188869049538 	0.0205697859623758 	2.282618783988
1 	2.83735821672614 	6.93889390390723e-18 	1.08199435481795 	0.0201215193752095 	2.42156807282467
1 	2.8482475259599 	1.04083408558608e-17 	1.08209162491083 	0.0196893078418878 	2.57638551743295
1 	2.85875202464506 	1.38777878078145e-17 	1.08218107911091 	0.0192731827806478 	2.74951818698538
1 	2.86888531136304 	1.73472347597681e-17 	1.08226325322755 	0.0188733088715743 	2.94392008894307
1 	2.87866050414343 	1.38777878078145e-17 	1.08233864269689 	0.0184900016074583 	3.16317961610459
1 	2.88809025744591 	1.38777878078145e-17 	1.08240770449076 	0.0181237480787466 	3.41168448194265
1 	2.89718677854204 	1.38777878078145e-17 	1.08247085876573 	0.0177752308349824 	3.69483662522409
1 	2.90596184331818 	1.04083408558608e-17 	1.08252849023217 	0.0174453541045247 	4.01933417606985
1 	2.91442681151997 	6.93889390390723e-18 	1.08258094921682 	0.0171352706465567 	4.3935440581939
1 	2.922592641458 	3.46944695195361e-18 	1.08262855238768 	0.0168464057691639 	4.82799802079163
1 	2.93046990419394 	3.46944695195361e-18 	1.08267158310737 	0.0165804721312717 	5.3360581869012
1 	2.93806879722526 	6.93889390390723e-18 	1.08271029139031 	0.0163394641841814 	5.93481775516798
1 	2.94539915768638 	1.04083408558608e-17 	1.08274489346456 	0.0161256135157286 	6.64633206157748
1 	2.95247047508334 	1.04083408558608e-17 	1.08277557099881 	0.0159412745366782 	7.49932167520318
1 	2.9592919035784 	1.21430643318376e-17 	1.08280247015871 	0.0157886919604494 	8.53156586579065
1 	2.96587227384055 	1.38777878078145e-17 	1.08282570080737 	0.0156695747008434 	9.79333862656377
1 	2.97222010447726 	1.04083408558608e-17 	1.08284533634504 	0.0155843611474708 	11.352487299101
1 	2.97834361306218 	3.46944695195361e-18 	1.08286141483867 	0.0155310009831819 	13.3022389948038
1 	2.98425072677325 	0 	1.08287394183465 	0.0155029820724778 	15.7738173140966
1 	2.98994909265477 	-3.46944695195361e-18 	1.08288289304247 	0.0154861539494188 	18.9580921893589
1 	2.99544608751689 	-6.93889390390723e-18 	1.08288821080093 	0.0154535266612111 	23.1452217666557
1 	3.00074882748522 	-6.93889390390723e-18 	1.08288979249765 	0.0153563429606341 	28.8026456355353
1 	3.00586417721304 	-6.93889390390723e-18 	1.08288752466777 	0.015107417239084 	36.7458450955025
1 	3.01079875876789 	-6.93889390390723e-18 	1.08288105686486 	0.0145472483198859 	48.5323637338363
1 	3.01555896020418 	0 	1.0828676810438 	0.0133707537174037 	67.5128153823513
1 	3.02015094383281 	3.46944695195361e-18 	1.08284009831753 	0.0109968431600785 	102.217421807396
1 	3.02458065419861 	0 	1.0828012121379 	0.00674687723813984 	182.350175857969
1 	3.02885382577582 	0 	1.08277257700019 	0.00202865683597244 	495.654773729803
1 	3.03297599039165 	-6.93889390390723e-18 	1.08276191046333 	0.000218892342506927 	1722.3658832658
