2 	0.0118766634903468 	4.16333634234434e-17 	1.04754927421155 	0.00334060468240404 	148.846692545297
2 	0.0201339998195326 	4.33680868994202e-17 	1.04754893990728 	0.00850480716888422 	45.5444617240046
2 	0.0286938265600376 	5.20417042793042e-17 	1.04754706636751 	0.0132576931648398 	23.450462105903
2 	0.0375672248214896 	5.55111512312578e-17 	1.04753817863026 	0.0170504144029476 	15.8354537953891
2 	0.0467656816470147 	5.55111512312578e-17 	1.04751464586074 	0.0201776804722941 	12.0938511203414
2 	0.0563011048837711 	6.07153216591882e-17 	1.04747480592729 	0.0228690945040701 	9.85941194326818
2 	0.0661858385982333 	6.59194920871187e-17 	1.04741929033414 	0.0252570532294503 	8.36784284324236
2 	0.0764326790561829 	6.07153216591882e-17 	1.04734890590578 	0.0274216336343917 	7.29903701016754
2 	0.0870548912880936 	5.3776427755281e-17 	1.04726444694541 	0.0294147523834474 	6.49491854984265
2 	0.0980662262613554 	5.55111512312578e-17 	1.04716675767618 	0.0312720747072931 	5.86821802139264
2 	0.109480938681567 	5.3776427755281e-17 	1.0470567300803 	0.0330192647047246 	5.36671036575675
2 	0.121313805445942 	4.5102810375397e-17 	1.04693530221236 	0.0346755002514084 	4.95717543868504
2 	0.133580144772717 	4.77048955893622e-17 	1.04680346804838 	0.0362555725898248 	4.61744975213566
2 	0.146295836031327 	5.3776427755281e-17 	1.04666228867097 	0.0377712067766082 	4.3321718687148
2 	0.159477340299017 	5.3776427755281e-17 	1.04651290186573 	0.0392319301083754 	4.090360453921
2 	0.173141721670501 	4.9439619065339e-17 	1.04635653065503 	0.0406456667702044 	3.88396466638814
2 	0.187306669348262 	4.0766001685455e-17 	1.04619449137758 	0.0420191609180118 	3.70695977339458
2 	0.20199052054208 	3.72965547335014e-17 	1.04602820188508 	0.0433582895762603 	3.5547630493866
2 	0.217212284207436 	4.16333634234434e-17 	1.04585919058015 	0.0446683038132004 	3.4238455332826
2 	0.232991665653523 	5.160802341031e-17 	1.04568910716726 	0.0459540233453391 	3.31146786182378
2 	0.249349092052728 	5.39932681897781e-17 	1.04551973620076 	0.0472200017452235 	3.21549727781945
2 	0.266305738884589 	5.908901840046e-17 	1.04535301493741 	0.0484706745305734 	3.13427940046385
2 	0.283883557348484 	6.19079440489223e-17 	1.04519335204063 	0.0497099694032262 	3.06659809652384
2 	0.302105302780516 	5.89805981832114e-17 	1.04504952994601 	0.0509412296538537 	3.01164043324378
2 	0.320994564111402 	5.55111512312578e-17 	1.04491568201047 	0.0521715023667767 	2.96856079588561
2 	0.340575794403482 	5.55111512312578e-17 	1.04479485644561 	0.0534062097720907 	2.93696980234964
2 	0.360874342506392 	5.55111512312578e-17 	1.0446904788283 	0.0546514057002343 	2.91672190579334
2 	0.38191648587238 	4.16333634234434e-17 	1.04460646202672 	0.0559139540552155 	2.90791376532428
2 	0.403729464573739 	3.81639164714898e-17 	1.04454735056419 	0.0572017158647111 	2.91089214767246
2 	0.426341516566396 	3.81639164714898e-17 	1.04451849562031 	0.0585237346382301 	2.92626987963999
2 	0.449781914245319 	3.81639164714898e-17 	1.04452631016864 	0.0598904008551954 	2.95494789296074
2 	0.474081002339048 	3.98986399474666e-17 	1.04457864656518 	0.0613135378475071 	2.99813734941344
2 	0.499270237192413 	3.98986399474666e-17 	1.04468517635237 	0.0628063196142378 	3.05737232023844
2 	0.525382227488298 	4.16333634234434e-17 	1.04485727628945 	0.0643831418823071 	3.13451589000694
2 	0.552450776461161 	3.29597460435593e-17 	1.04510837976041 	0.0660586573804727 	3.23168718968478
2 	0.580510925656956 	1.73472347597681e-17 	1.04545448545922 	0.0678460432618285 	3.35106411980768
2 	0.609599000296116 	8.67361737988404e-18 	1.04591413515859 	0.0697535253883569 	3.49435480279589
2 	0.639752656298307 	1.56125112837913e-17 	1.04650709073467 	0.0717775177912327 	3.66146424620473
2 	0.671010929029842 	1.82145964977565e-17 	1.04725111104769 	0.0738914868422442 	3.84819281916601
2 	0.703414283836854 	1.17093834628434e-17 	1.04815865813373 	0.0760348109339849 	4.04494514233983
2 	0.737004668429646 	7.37257477290143e-18 	1.04923721125756 	0.0781091673281352 	4.23912854897117
2 	0.761419519668137 	1.73472347597681e-18 	1.05009761878734 	0.079472899676141 	4.3690591573821
2 	0.779162313841247 	-3.46944695195361e-18 	1.05076811729118 	0.08034409540864 	4.45425950902421
2 	0.807992742715647 	-6.93889390390723e-18 	1.05192132733106 	0.0815140605965777 	4.5753220472915
2 	0.845475280399478 	-1.38777878078145e-17 	1.0535316599267 	0.0825119963333069 	4.69644817492554
2 	0.884326557652536 	-1.38777878078145e-17 	1.05531426138544 	0.0827886265400158 	4.76864653814116
2 	0.924596372923088 	-6.93889390390723e-18 	1.05724910349924 	0.0821904264441842 	4.77525948768546
2 	0.966336321272196 	-8.67361737988404e-18 	1.05930370456107 	0.0806625358541722 	4.69892629029233
2 	1.00959985787075 	-1.04083408558608e-17 	1.06143353491899 	0.0783175646021033 	4.52674634061546
2 	1.05444236361788 	-8.67361737988404e-18 	1.06358603189605 	0.0754645472485135 	4.25787888937415
2 	1.10092121293912 	-6.93889390390723e-18 	1.06571120251188 	0.0725442902002201 	3.9098382211271
2 	1.14909584382294 	-3.46944695195361e-18 	1.06777576385167 	0.0699711871090048 	3.51732431825865
2 	1.19902783015393 	4.44522890719057e-18 	1.0697685541615 	0.0679766358576846 	3.12046128863186
2 	1.25078095640108 	1.13841228110978e-17 	1.07169095842143 	0.0665702372740974 	2.75111586076574
2 	1.30442129471847 	1.73472347597681e-17 	1.07354806141655 	0.065610415432956 	2.42826877020319
2 	1.36001728451516 	1.38777878078145e-17 	1.07535953635971 	0.064875048490191 	2.15674537928806
2 	1.41763981454947 	1.04083408558608e-17 	1.0771340865881 	0.0641912377414031 	1.93565502152378
2 	1.47736230760124 	1.38777878078145e-17 	1.0788800270919 	0.0634308103069293 	1.75887042982484
2 	1.53926080777324 	1.30104260698261e-17 	1.0806025366038 	0.0625081943750578 	1.61738342696175
2 	1.60341407047001 	1.04083408558608e-17 	1.08230321063605 	0.0613695523841941 	1.50200478279695
2 	1.66893489902563 	7.80625564189563e-18 	1.08395555332176 	0.0600075859300619 	1.40737575443275
2 	1.70277529794134 	6.93889390390723e-18 	1.08478736349284 	0.0592520193484684 	1.36360653741471
2 	1.73884798288128 	6.93889390390723e-18 	1.08562654183104 	0.0583562094861036 	1.3247879051295
2 	1.81031024575141 	0 	1.08724010134097 	0.0564778092032689 	1.25523076193545
2 	1.88432958821742 	-6.93889390390723e-18 	1.08881077423574 	0.0543481489385774 	1.19596423715167
2 	1.9609947218388 	0 	1.09027448142104 	0.0520448514515749 	1.14698060505815
2 	2.02024009608345 	0 	1.091422773836 	0.0501096192925183 	1.11569037450683
2 	2.06000503604194 	6.93889390390723e-18 	1.09212024608619 	0.0487333384491973 	1.09736107486897
2 	2.09836474743796 	1.38777878078145e-17 	1.09275875664958 	0.0474275638567008 	1.08296196078907
2 	2.13536888877257 	6.93889390390723e-18 	1.09335369601552 	0.0461499949072223 	1.07153540637149
2 	2.17106536369585 	0 	1.09390018649004 	0.0449034368159677 	1.06289252041277
2 	2.20550038302044 	6.93889390390723e-18 	1.09440217442886 	0.0436898035474759 	1.05688579049961
2 	2.23871852454378 	1.38777878078145e-17 	1.0948630713265 	0.0425102899691861 	1.0534016284176
2 	2.27076279075613 	6.93889390390723e-18 	1.09528571575543 	0.0413655128007471 	1.05235484939562
2 	2.30167466450941 	6.93889390390723e-18 	1.09567279641893 	0.0402556305224303 	1.05368471768904
2 	2.33149416271872 	6.93889390390723e-18 	1.09602686636137 	0.0391804437439957 	1.05735215089764
2 	2.36025988816627 	0 	1.09635033099271 	0.0381394782990836 	1.06333780173536
2 	2.38800907947441 	6.93889390390723e-18 	1.0966454538439 	0.0371320535455844 	1.07164082425282
2 	2.41477765931296 	1.38777878078145e-17 	1.09691436325633 	0.0361573381243056 	1.08227819028643
2 	2.44060028090272 	1.38777878078145e-17 	1.09715905789817 	0.035214395179313 	1.09528446577327
2 	2.46551037287586 	1.38777878078145e-17 	1.09738141201172 	0.0343022188013255 	1.1107119900397
2 	2.48954018255081 	2.08166817117217e-17 	1.09758318060222 	0.0334197632208602 	1.1286314271518
2 	2.51272081767801 	2.08166817117217e-17 	1.09776600458323 	0.0325659660595926 	1.14913267935717
2 	2.53508228671038 	1.38777878078145e-17 	1.09793141589219 	0.0317397667522102 	1.17232617044827
2 	2.55665353765073 	1.38777878078145e-17 	1.09808084258533 	0.0309401210786566 	1.19834452301445
2 	2.57746249552636 	1.38777878078145e-17 	1.09821561390415 	0.0301660125980209 	1.22734466924442
2 	2.59753609853934 	2.08166817117217e-17 	1.09833696530302 	0.0294164616491224 	1.25951045125895
2 	2.6169003329393 	2.77555756156289e-17 	1.09844604341811 	0.0286905324773146 	1.29505578490826
2 	2.63558026666389 	2.77555756156289e-17 	1.0985439109611 	0.0279873389600467 	1.33422848159124
2 	2.65360008179049 	2.77555756156289e-17 	1.09863155151579 	0.0273060493332404 	1.37731484707926
2 	2.67098310584102 	3.46944695195361e-17 	1.0987098742212 	0.0266458902644879 	1.42464520586836
2 	2.68775184198056 	4.16333634234434e-17 	1.09877971832103 	0.026006150575677 	1.47660053582155
2 	2.70392799814879 	4.16333634234434e-17 	1.0988418575662 	0.0253861848851346 	1.5336204427478
2 	2.71953251516198 	4.16333634234434e-17 	1.09889700445353 	0.0247854174162729 	1.59621276053925
2 	2.73458559382185 	3.46944695195361e-17 	1.09894581429117 	0.0242033462044117 	1.66496513263593
2 	2.74910672106653 	2.77555756156289e-17 	1.09898888907693 	0.0236395479244132 	1.74055901882198
2 	2.76311469519732 	2.77555756156289e-17 	1.09902678118313 	0.0230936835570173 	1.82378668263886
2 	2.776627650214 	2.08166817117217e-17 	1.09905999683637 	0.0225655051089015 	1.91557185532774
2 	2.78966307929018 	1.38777878078145e-17 	1.099088999387 	0.0220548635968926 	2.01699495013504
2 	2.80223785741904 	1.38777878078145e-17 	1.09911421235696 	0.0215617184953368 	2.1293239260406
2 	2.81436826325886 	1.38777878078145e-17 	1.09913602225925 	0.0210861488194767 	2.25405218499283
2 	2.82607000020647 	1.38777878078145e-17 	1.09915478117523 	0.0206283659651677 	2.39294524706228
2 	2.83735821672613 	1.38777878078145e-17 	1.09917080907827 	0.0201887283287646 	2.54809840260004
2 	2.8482475259599 	1.38777878078145e-17 	1.09918439588377 	0.0197677575648379 	2.72200811278583
2 	2.85875202464506 	1.38777878078145e-17 	1.09919580320668 	0.019366156066168 	2.91766064825581
2 	2.86888531136304 	1.38777878078145e-17 	1.09920526579828 	0.0189848248178028 	3.13864235497372
2 	2.87866050414343 	1.38777878078145e-17 	1.09921299263683 	0.0186248801130742 	3.3892770625201
2 	2.88809025744591 	1.04083408558608e-17 	1.09921916764156 	0.0182876666309883 	3.67479756619433
2 	2.89718677854204 	6.93889390390723e-18 	1.09922394999283 	0.0179747629468707 	4.00155992102793
2 	2.90596184331818 	1.04083408558608e-17 	1.09922747405459 	0.0176879735556486 	4.37731166063511
2 	2.91442681151997 	1.73472347597681e-17 	1.09922984893799 	0.0174292988152206 	4.81152833800329
2 	2.922592641458 	1.73472347597681e-17 	1.0992311578029 	0.0172008708088341 	5.31583765910351
2 	2.93046990419394 	1.73472347597681e-17 	1.09923145709011 	0.0170048390495254 	5.9045583039162
2 	2.93806879722526 	2.08166817117217e-17 	1.099230775993 	0.0168431854844611 	6.59539398151142
2 	2.94539915768638 	2.08166817117217e-17 	1.09922911660826 	0.0167174439305996 	7.41034749528601
2 	2.95247047508334 	2.42861286636753e-17 	1.09922645529903 	0.0166282955451529 	8.37696426490212
2 	2.9592919035784 	2.42861286636753e-17 	1.09922274580433 	0.0165750094893042 	9.53009769298137
2 	2.96587227384055 	2.08166817117217e-17 	1.09921792444171 	0.0165546952570242 	10.9145428260809
2 	2.97222010447726 	1.73472347597681e-17 	1.09921191733489 	0.0165613248676758 	12.5891718232729
2 	2.97834361306218 	1.38777878078145e-17 	1.09920464895519 	0.016584455674461 	14.6337472958489
2 	2.98425072677325 	1.38777878078145e-17 	1.09919605029153 	0.0166075086067727 	17.1606472023335
2 	2.98994909265477 	1.04083408558608e-17 	1.09918606269519 	0.0166052719873818 	20.3358962472555
2 	2.99544608751689 	3.46944695195361e-18 	1.09917463030735 	0.0165398805641492 	24.4185616920211
2 	3.00074882748522 	6.93889390390723e-18 	1.09916168055267 	0.0163535555531677 	29.838967898966
2 	3.00586417721304 	1.04083408558608e-17 	1.09914714316876 	0.0159540012610289 	37.3697882165436
2 	3.01079875876789 	6.93889390390723e-18 	1.09913066108637 	0.015183086303868 	48.5188871485446
2 	3.01555896020418 	1.04083408558608e-17 	1.09910940576958 	0.0137476888847337 	66.5835678984828
2 	3.02015094383281 	1.04083408558608e-17 	1.09907639914688 	0.0111011406437828 	100.079345106034
2 	3.02458065419861 	1.04083408558608e-17 	1.09903552566063 	0.00666033925826523 	179.013742319425
2 	3.02885382577582 	2.08166817117217e-17 	1.09900702336021 	0.00196903808458398 	492.560947966847
2 	3.03297599039165 	2.60208521396521e-17 	1.0989964744861 	0.000210947689145054 	1722.07082878341
