1 	0.451351328259074 	-2.42861286636753e-17 	1.02608268834846 	2.86967005397674e-05 	1076.40621041157
1 	0.457856884621384 	-2.77555756156289e-17 	1.02605912824682 	0.00024531221691233 	328.556239188645
1 	0.464597494115859 	-2.77555756156289e-17 	1.02603625823779 	0.000967645968335555 	96.9867703065599
1 	0.471581531993916 	-3.46944695195361e-17 	1.02601762898817 	0.00228454206564641 	44.3018678381079
1 	0.478817663648872 	-4.16333634234434e-17 	1.02600662129059 	0.00382449720730218 	25.6203778972674
1 	0.486314854099112 	-4.16333634234434e-17 	1.02600624938665 	0.00528715400586827 	17.3154780860262
1 	0.494082377743682 	-3.46944695195361e-17 	1.02601636089043 	0.00661058088708457 	12.9994007835124
1 	0.502129828395864 	-3.12250225675825e-17 	1.02603531144864 	0.00781891854858657 	10.4530875511592
1 	0.510467129600163 	-4.16333634234434e-17 	1.02606146950403 	0.00894488253489457 	8.79800713888635
1 	0.519104545238184 	-5.55111512312578e-17 	1.02609365533652 	0.0100145746532266 	7.64327573856017
1 	0.528052690428786 	-6.24500451351651e-17 	1.02613105916765 	0.0110475342209832 	6.79497682660757
1 	0.537322542727918 	-6.24500451351651e-17 	1.0261730990765 	0.0120587029652688 	6.14769444215044
1 	0.546925453633457 	-6.24500451351651e-17 	1.02621934207596 	0.0130600234090505 	5.63978025566423
1 	0.556873160400326 	-6.24500451351651e-17 	1.02626946982983 	0.0140615343046015 	5.23306069984518
1 	0.567177798171134 	-5.89805981832114e-17 	1.02632327146919 	0.0150721146793692 	4.90284182485333
1 	0.577851912427522 	-4.85722573273506e-17 	1.02638065960913 	0.0161000117675739 	4.63263851948928
1 	0.588908471767319 	-3.81639164714898e-17 	1.02644170977514 	0.0171532446864355 	4.41123754766448
1 	0.600360881012588 	-3.12250225675825e-17 	1.02650672511977 	0.018239944940652 	4.23099066248285
1 	0.612222994653594 	-2.42861286636753e-17 	1.02657632971294 	0.0193686770184137 	4.08679586537156
1 	0.624509130633639 	-2.08166817117217e-17 	1.02665159453508 	0.0205487734623808 	3.97548769738209
1 	0.637234084479704 	-1.73472347597681e-17 	1.0267342005625 	0.0217907158937396 	3.89548869011698
1 	0.650413143783826 	-1.73472347597681e-17 	1.02682664295912 	0.0231065948249339 	3.84664436239932
1 	0.664062103040055 	-2.42861286636753e-17 	1.0269324786362 	0.0245106857013239 	3.83020522536768
1 	0.678197278841898 	-2.77555756156289e-17 	1.02705661425153 	0.0260201853661256 	3.84894637147774
1 	0.692835525445182 	-2.91650384398601e-17 	1.02720417813788 	0.0276594735876503 	3.90851740547623
1 	0.707994250701264 	-3.78386558197441e-17 	1.02738358153928 	0.0294586139105288 	4.01749514294467
1 	0.723691432365647 	-4.55364912443912e-17 	1.02760906036275 	0.0314466571734208 	4.18493055712369
1 	0.739945634787164 	-4.64038529823796e-17 	1.02789520521069 	0.0336659978884677 	4.42535112863408
1 	0.756776025983054 	-4.59701721133854e-17 	1.02825779331426 	0.0361676286274934 	4.75773912904102
1 	0.774202395105461 	-4.59701721133854e-17 	1.02871171339989 	0.0390056351068197 	5.2031827820403
1 	0.792245170305166 	-5.03069808033274e-17 	1.02927108721094 	0.0422077834484822 	5.76825274274098
1 	0.810925436998707 	-5.20417042793042e-17 	1.02994839057037 	0.0457615632615039 	6.4361446767963
1 	0.830264956545436 	-5.29090660172926e-17 	1.03074647770894 	0.0496275919795149 	7.18897361282846
1 	0.850286185341601 	-5.3776427755281e-17 	1.03165507942241 	0.0537133529777308 	8.00743776047933
1 	0.871012294339098 	-4.33680868994202e-17 	1.03266451187757 	0.0577568129135663 	8.81135785584397
1 	0.892467188997261 	-3.64291929955129e-17 	1.03376302401584 	0.0613760068504924 	9.47973226765021
1 	0.914675529676922 	-3.81639164714898e-17 	1.03491751554855 	0.06423775073688 	9.93356784261894
1 	0.937662752486865 	-4.33680868994202e-17 	1.03607681494739 	0.0661206991106911 	10.1179268031049
1 	0.961455090593968 	-4.5102810375397e-17 	1.0371862821848 	0.0669928529081021 	9.99932548977503
1 	0.986079596009581 	-4.16333634234434e-17 	1.03819773047916 	0.0670481223790126 	9.57652550864038
1 	1.01156416186612 	-4.5102810375397e-17 	1.03907664054826 	0.0666571567430105 	8.88877527341159
1 	1.03793754519955 	-4.85722573273506e-17 	1.0398042034699 	0.0662405534192915 	8.01421035172427
1 	1.06522939025519 	-4.5102810375397e-17 	1.04037770378574 	0.0661231711955852 	7.05123790261869
1 	1.09347025233648 	-4.5102810375397e-17 	1.04081149631603 	0.0664457327056947 	6.09437977658371
0.999999999999999 	1.12269162221858 	-3.81639164714898e-17 	1.04113612382584 	0.0671692351984087 	5.21635742981811
0.999999999999999 	1.1529259511513 	-3.12250225675825e-17 	1.04139331455155 	0.0681456989796231 	4.46298036485462
0.999999999999999 	1.18420667647869 	-3.12250225675825e-17 	1.04162954701469 	0.069202473795769 	3.85181589052624
0.999999999999999 	1.20932909529518 	-2.77555756156289e-17 	1.04182749015411 	0.0699937411629389 	3.46482100740563
0.999999999999999 	1.22578615918077 	-3.12250225675825e-17 	1.04196834153377 	0.0704647265433235 	3.25471286999718
1 	1.25005321751936 	-3.12250225675825e-17 	1.04220663024743 	0.0710563884086682 	2.99718719248256
1 	1.28469102414952 	-2.77555756156289e-17 	1.04260643950957 	0.0717163384304889 	2.70097606981711
1 	1.3205186819877 	-2.42861286636753e-17 	1.04310436176592 	0.0721536164411653 	2.46212967912389
1 	1.3575749113035 	-1.38777878078145e-17 	1.04371019177684 	0.0723565058481008 	2.26528868466516
1 	1.39589958614917 	-1.04083408558608e-17 	1.04443088837385 	0.0723218137407155 	2.10008609489666
1 	1.43553376564998 	-1.38777878078145e-17 	1.04527114444391 	0.0720514353163197 	1.95939035712573
1 	1.4765197263163 	-1.04083408558608e-17 	1.04623351909976 	0.0715503211976905 	1.83812414814742
1 	1.51890099544962 	-6.93889390390723e-18 	1.04731858731762 	0.0708252481854857 	1.73254252335441
1 	1.56272238572095 	0 	1.04852507125419 	0.0698841051783701 	1.63979638880621
1 	1.60803003100759 	1.04083408558608e-17 	1.04984991978275 	0.0687355272022006 	1.55766629018439
1 	1.65487142358123 	1.04083408558608e-17 	1.05128834919812 	0.0673887615100432 	1.48439930346258
1 	1.70329545274835 	0 	1.05283386584365 	0.065853674855969 	1.41860925512646
1 	1.75335244505181 	-3.46944695195361e-18 	1.05447825198805 	0.0641408273656559 	1.35921598882278
1 	1.80509420615134 	2.81892564846231e-18 	1.05621292551439 	0.0622596650424665 	1.30546164544213
1 	1.85857406450905 	8.02309607639273e-18 	1.05803052673793 	0.0602193871539344 	1.25687326943111
1 	1.91384691701544 	5.20417042793042e-18 	1.05991480818292 	0.0580389889796322 	1.21298796308342
1 	1.97096927670056 	-6.07153216591882e-18 	1.06178929439264 	0.0557590313601646 	1.17412661096031
1 	2.02024009608346 	-1.04083408558608e-17 	1.06349275154817 	0.0537512654039956 	1.14521174748364
1 	2.06000503604194 	-1.04083408558608e-17 	1.06479117338686 	0.0520870634466943 	1.12439502729404
1 	2.09836474743796 	-1.04083408558608e-17 	1.0660179199032 	0.0505008483434964 	1.10733748967015
1 	2.13536888877257 	-1.04083408558608e-17 	1.06718145649686 	0.0489694504362159 	1.09343173996957
1 	2.17106536369584 	-1.04083408558608e-17 	1.06827706776316 	0.0474937016931383 	1.08247929161341
1 	2.20550038302044 	-1.04083408558608e-17 	1.06930729937758 	0.0460735033757923 	1.07432130766267
1 	2.23871852454378 	-1.04083408558608e-17 	1.07027474284151 	0.0447080698276189 	1.06883104277588
1 	2.27076279075613 	-1.04083408558608e-17 	1.07118193021043 	0.0433961179370274 	1.06590858926496
1 	2.3016746645094 	-1.38777878078145e-17 	1.07203155821458 	0.0421360157778316 	1.06547725335576
1 	2.33149416271872 	-2.08166817117217e-17 	1.07282642045076 	0.0409258982558154 	1.06748106434301
1 	2.36025988816626 	-2.42861286636753e-17 	1.07356933674058 	0.0397637562991988 	1.0718830908385
1 	2.38800907947441 	-2.42861286636753e-17 	1.07426311005764 	0.0386475050164354 	1.07866435183536
1 	2.41477765931295 	-3.12250225675825e-17 	1.07491049528679 	0.0375750352135973 	1.08782318478666
1 	2.44060028090272 	-3.81639164714898e-17 	1.07551417574264 	0.0365442518119637 	1.09937498370127
1 	2.46551037287586 	-3.46944695195361e-17 	1.07607674627026 	0.0355531020097487 	1.1133522556336
1 	2.48954018255081 	-2.77555756156289e-17 	1.07660070162864 	0.0345995954624103 	1.12980496921377
1 	2.512720817678 	-2.42861286636753e-17 	1.07708842899138 	0.0336818182934533 	1.14880118771099
1 	2.53508228671037 	-2.42861286636753e-17 	1.07754220364901 	0.032797942374349 	1.17042799408798
1 	2.55665353765073 	-2.42861286636753e-17 	1.07796418718027 	0.0319462310127028 	1.19479272839882
1 	2.57746249552636 	-2.42861286636753e-17 	1.07835642751282 	0.031125041948727 	1.22202457005227
1 	2.59753609853934 	-1.73472347597681e-17 	1.07872086040558 	0.0303328283703407 	1.25227650998542
1 	2.61690033293929 	-1.04083408558608e-17 	1.07905931198732 	0.0295681385074367 	1.28572777160875
1 	2.63558026666389 	-1.04083408558608e-17 	1.07937350205577 	0.0288296142485221 	1.3225867554131
1 	2.65360008179049 	-1.04083408558608e-17 	1.07966504791071 	0.0281159891317796 	1.36309460135464
1 	2.67098310584102 	-1.38777878078145e-17 	1.07993546853619 	0.0274260859927579 	1.40752948670266
1 	2.68775184198056 	-2.08166817117217e-17 	1.08018618899431 	0.0267588144983439 	1.4562118063477
1 	2.70392799814879 	-2.08166817117217e-17 	1.08041854491679 	0.0261131687584237 	1.5095104194066
1 	2.71953251516198 	-1.38777878078145e-17 	1.08063378701331 	0.0254882251802291 	1.56785019262727
1 	2.73458559382185 	-6.93889390390723e-18 	1.08083308552827 	0.0248831407141095 	1.63172113062047
1 	2.74910672106653 	-6.93889390390723e-18 	1.0810175346005 	0.0242971516319543 	1.70168945933664
1 	2.76311469519732 	-1.04083408558608e-17 	1.08118815648609 	0.0237295729799286 	1.77841112782334
1 	2.776627650214 	-6.93889390390723e-18 	1.08134590562096 	0.023179798854834 	1.86264832133281
1 	2.78966307929018 	0 	1.08149167250104 	0.0226473036679931 	1.9552897460191
1 	2.80223785741904 	3.46944695195361e-18 	1.08162628736953 	0.0221316445816233 	2.05737566494882
1 	2.81436826325886 	0 	1.08175052369943 	0.0216324653298498 	2.17012895496841
1 	2.82607000020648 	0 	1.08186510146771 	0.0211495016686675 	2.29499383911023
1 	2.83735821672614 	6.93889390390723e-18 	1.08197069021455 	0.0206825887337461 	2.43368446479259
1 	2.8482475259599 	1.04083408558608e-17 	1.08206791188674 	0.0202316706178249 	2.58824619061278
1 	2.85875202464506 	1.38777878078145e-17 	1.08215734345913 	0.0197968125040352 	2.7611333793095
1 	2.86888531136304 	1.73472347597681e-17 	1.08223951933052 	0.0193782156929274 	2.95530876931027
1 	2.87866050414343 	1.38777878078145e-17 	1.08231493348447 	0.0189762358151288 	3.17437123826721
1 	2.88809025744591 	1.38777878078145e-17 	1.08238404140608 	0.0185914043884117 	3.42272116977954
1 	2.89718677854204 	1.38777878078145e-17 	1.08244726173709 	0.0182244535883934 	3.70577595813342
1 	2.90596184331818 	1.04083408558608e-17 	1.0825049776485 	0.0178763435430248 	4.03025282301294
1 	2.91442681151997 	6.93889390390723e-18 	1.08255753790023 	0.0175482904509755 	4.40454262728935
1 	2.922592641458 	3.46944695195361e-18 	1.08260525755456 	0.0172417920738093 	4.83920766625495
1 	2.93046990419394 	3.46944695195361e-18 	1.08264841830483 	0.0169586442116334 	5.34764977142999
1 	2.93806879722526 	6.93889390390723e-18 	1.08268726839239 	0.0167009369613348 	5.94701473755809
1 	2.94539915768638 	1.04083408558608e-17 	1.08272202210934 	0.0164710118763933 	6.65942880984709
1 	2.95247047508334 	1.04083408558608e-17 	1.08275285894926 	0.0162713491776109 	7.5137096461464
1 	2.9592919035784 	1.21430643318376e-17 	1.082779922575 	0.0161043359477591 	8.54777109852972
1 	2.96587227384055 	1.38777878078145e-17 	1.08280331993386 	0.0159718390884132 	9.81207532983143
1 	2.97222010447726 	1.04083408558608e-17 	1.08282312103875 	0.0158744667233063 	11.3747340553262
1 	2.97834361306218 	3.46944695195361e-18 	1.08283936010787 	0.0158103414444759 	13.3293464858278
1 	2.98425072677325 	0 	1.08285203851287 	0.0157731116793399 	15.8076602906479
1 	2.98994909265477 	-3.46944695195361e-18 	1.08286112771914 	0.0157487499797473 	19.0012872418274
1 	2.99544608751689 	-6.93889390390723e-18 	1.08286656590145 	0.0157103130900837 	23.2014663005261
1 	3.00074882748522 	-6.93889390390723e-18 	1.08286824730938 	0.0156089527094194 	28.8773403138213
1 	3.00586417721304 	-6.93889390390723e-18 	1.08286605731548 	0.0153571522826393 	36.8468032070339
1 	3.01079875876789 	-6.93889390390723e-18 	1.08285965610085 	0.0147945754772999 	48.6719307880858
1 	3.01555896020418 	0 	1.08284634945442 	0.0136138602857431 	67.7132007398725
1 	3.02015094383281 	3.46944695195361e-18 	1.08281867838066 	0.0112258782205921 	102.522079520218
1 	3.02458065419861 	0 	1.08277922981576 	0.00692432756800348 	182.812975443447
1 	3.02885382577582 	0 	1.08274990040936 	0.00209290689520316 	496.120554640809
1 	3.03297599039165 	-6.93889390390723e-18 	1.08273889020953 	0.000226295741896409 	1722.40852044251
