5 	0.00391112967796274 	3.46944695195361e-18 	0.0157793179567764 	-6.37174059793618e-05 	1.21524842898596e-20
5 	0.0118766651674915 	6.93889390390723e-18 	0.0492770370255526 	-0.000443544379784539 	-1.01225457362135e-21
5 	0.020134001548576 	0 	0.0712999226838992 	-0.00106171053188786 	-1.03963986412475e-20
5 	0.0286938283423949 	-6.93889390390723e-18 	0.0840647177683424 	-0.00174430480559615 	-6.18268088932132e-21
5 	0.0375672266585909 	1.73472347597681e-18 	0.0927669116786217 	-0.00248356357200213 	-5.16053265507014e-22
5 	0.0467656835403033 	1.04083408558608e-17 	0.0997078279209014 	-0.0032776391654001 	-1.75524749167112e-22
5 	0.0563011068347008 	1.04083408558608e-17 	0.105761057252204 	-0.00411588197415686 	-1.80192709165022e-21
5 	0.0661858406082649 	3.46944695195361e-18 	0.111318576215391 	-0.00499284383690436 	-1.47586369345097e-21
5 	0.0764326811267816 	5.20417042793042e-18 	0.116587738425454 	-0.00590666452856134 	-2.04189900799835e-21
5 	0.0870548934207257 	1.21430643318376e-17 	0.121692811887018 	-0.00685661950645008 	1.85167590522899e-21
5 	0.0980662284574838 	1.21430643318376e-17 	0.126715855799983 	-0.00784239805200071 	-3.25969531138102e-21
5 	0.109480940942647 	1.04083408558608e-17 	0.131715534957597 	-0.00886392440423563 	-1.04116730619501e-22
5 	0.121313807773416 	1.04083408558608e-17 	0.13673672844716 	-0.00992126038077894 	4.78041678231159e-17
5 	0.13358014716801 	1.04083408558608e-17 	0.141815857557833 	-0.011014534873118 	5.04215872200095e-17
5 	0.146295838495839 	8.67361737988404e-18 	0.146984045552485 	-0.0121438939401342 	-4.06490994777238e-17
5 	0.159477342834115 	8.67361737988404e-18 	0.152269102011574 	-0.0133094626100172 	-4.32315698463956e-17
5 	0.173141724277517 	1.21430643318376e-17 	0.157696833752362 	-0.0145113121896232 	-1.32823856138868e-21
5 	0.18730667202848 	1.21430643318376e-17 	0.163291951833171 	-0.0157494297762906 	8.80866139622956e-22
5 	0.201990523296728 	1.21430643318376e-17 	0.169078726619813 	-0.0170236880030322 	-1.98782338293653e-21
5 	0.217212287037675 	1.56125112837913e-17 	0.175081480078142 	-0.0183338136436244 	-8.87255797781382e-23
5 	0.232991668560441 	2.25514051876985e-17 	0.181324969177845 	-0.0196793540331793 	1.72695255176388e-21
5 	0.249349095037321 	3.12250225675825e-17 	0.187834693528876 	-0.0210596404564528 	-1.53936803780081e-22
5 	0.266305741947753 	3.46944695195361e-17 	0.194637147554652 	-0.0224737477761821 	-2.21341067597745e-22
5 	0.283883560490998 	2.60208521396521e-17 	0.201760029162708 	-0.0239204496549779 	-2.87441390712682e-22
5 	0.30210530600303 	1.73472347597681e-17 	0.209232411088735 	-0.0253981687927094 	-3.59994518436632e-21
5 	0.320994567414413 	2.25514051876985e-17 	0.217084876765369 	-0.0269049216762421 	1.31876669980002e-22
5 	0.340575797787321 	2.42861286636753e-17 	0.225349619049434 	-0.0284382574366714 	1.99173460325376e-21
5 	0.360874345971201 	2.60208521396521e-17 	0.234060497031288 	-0.02999519054798 	-1.60944659553831e-21
5 	0.38191648941809 	2.42861286636753e-17 	0.243253043200531 	-0.0315721272989616 	-2.48834759687276e-26
5 	0.403729468200045 	1.73472347597681e-17 	0.252964410307941 	-0.0331647862486859 	2.08777020071338e-25
5 	0.426341520272733 	2.08166817117217e-17 	0.263233244274548 	-0.0347681132590029 	3.2387488215188e-21
5 	0.449781918030829 	1.90819582357449e-17 	0.274099466455102 	-0.0363761922131951 	-4.55943213517061e-21
4.99999999999999 	0.474081006202548 	1.56125112837913e-17 	0.285603945537974 	-0.0379821532077893 	-7.7862514096044e-22
5 	0.499270241132363 	1.56125112837913e-17 	0.297788036516636 	-0.0395780808757584 	-4.000159426465e-21
5 	0.525382231502762 	1.56125112837913e-17 	0.310692961765262 	-0.0411549265927837 	-2.09785949959953e-22
5 	0.552450780547767 	2.25514051876985e-17 	0.324359007689972 	-0.0427024296562579 	-4.14705505621775e-22
5 	0.580510929812849 	3.20923843055709e-17 	0.338824510263216 	-0.0442090541173936 	-4.05969570122558e-21
5 	0.60959900451791 	3.98986399474666e-17 	0.35412460472053 	-0.0456619497737139 	8.93676342900329e-21
5 	0.639752660582032 	3.90312782094782e-17 	0.370289719744331 	-0.0470469478362003 	7.29093586784183e-22
5 	0.671010933370886 	3.72965547335014e-17 	0.387343805710809 	-0.0483486038573716 	5.23140441204522e-22
4.99999999999999 	0.7034142882299 	3.29597460435593e-17 	0.405302301317308 	-0.0495503024448479 	3.3294915380213e-22
4.99999999999999 	0.737004672868605 	2.68882138776405e-17 	0.424169864469807 	-0.0506344397792704 	9.97533908688447e-21
4.99999999999999 	0.771825571663975 	3.12250225675825e-17 	0.443937922870925 	-0.0515827005553161 	7.45422457815186e-22
4.99999999999999 	0.807922061953053 	2.68882138776405e-17 	0.464582138000783 	-0.0523764450582257 	-9.89560071291754e-21
4.99999999999999 	0.845340872387742 	1.21430643318376e-17 	0.486059922834934 	-0.0529972189007819 	9.91677851439191e-21
5 	0.884130443427308 	1.30104260698261e-18 	0.508308206760707 	-0.0534273915712603 	1.09512070908564e-20
5 	0.924340990046897 	3.90312782094782e-18 	0.531241696364965 	-0.0536509194272603 	-9.68005320213462e-21
5 	0.966024566743241 	6.93889390390723e-18 	0.554751930256029 	-0.0536542133112804 	2.27962591170405e-20
5 	1.00923513492173 	6.50521303491303e-18 	0.578707457128307 	-0.053427070415246 	-2.50843429944816e-24
5 	1.05402863275205 	1.2793585635329e-17 	0.602955460283526 	-0.0529636057890863 	-2.52163715304071e-22
5 	1.10046304758287 	1.99493199737333e-17 	0.627325087636059 	-0.0522630946068481 	-2.40320262507969e-20
5 	1.14859849100923 	2.71050543121376e-17 	0.651632610370613 	-0.0513306171171459 	-2.41784898707798e-20
5 	1.19849727668994 	2.82976767018717e-17 	0.6756883299946 	-0.0501773888052025 	2.45911564237811e-20
5 	1.25022400101563 	2.35271871429354e-17 	0.699303831517982 	-0.0488202855079495 	2.4552278645651e-20
5 	1.30384562673185 	2.42861286636753e-17 	0.722296271200289 	-0.0472804807639747 	-1.60446759071321e-22
5 	1.35943156962565 	3.12250225675825e-17 	0.744515057879019 	-0.0455873476365875 	-2.26060972768374e-20
5 	1.41705378838762 	3.12250225675825e-17 	0.765834340373236 	-0.0437704194544591 	2.35197921687214e-20
5 	1.47678687776592 	2.08166817117217e-17 	0.786162525522476 	-0.0418595885858274 	-1.96225096041184e-20
5 	1.53870816513277 	1.73472347597681e-17 	0.805443821023816 	-0.0398829530318363 	1.09900987097618e-21
5 	1.60289781058851 	2.08166817117217e-17 	0.823656484759728 	-0.0378649624757495 	4.09207395199037e-20
5 	1.66943891073266 	2.08166817117217e-17 	0.840809793889162 	-0.0358248518866426 	4.0555369478893e-20
5 	1.73841760623657 	2.42861286636753e-17 	0.856937858667003 	-0.0337756446867693 	3.52251984435895e-21
5 	1.80992319335659 	3.46944695195361e-17 	0.87208930124473 	-0.0317238847369384 	3.41553403759099e-20
5 	1.88404823953248 	4.5102810375397e-17 	0.886315754427301 	-0.0296690139003063 	-1.44175731314284e-21
5 	1.96088870322037 	5.20417042793042e-17 	0.899428108295532 	-0.0276511720310996 	-3.1425058034731e-21
5 	2.02024009608345 	5.55111512312578e-17 	0.908786064103448 	-0.0261008979647198 	-1.66384750386117e-21
5 	2.06000503604194 	0 	0.91493243889098 	-0.025038970541582 	0
5 	2.09836474743796 	0 	0.92035798776839 	-0.0240592146059976 	0
5 	2.13536888877258 	-3.46944695195361e-18 	0.925329765452848 	-0.0231214127188306 	0
5 	2.17106536369585 	-6.93889390390723e-18 	0.929886387560568 	-0.0222223485509271 	0
5 	2.20550038302044 	-6.93889390390723e-18 	0.934060895336561 	-0.0213591143989842 	0
5 	2.23871852454378 	-6.93889390390723e-18 	0.937881677877458 	-0.0205291406169695 	0
5 	2.27076279075613 	-6.93889390390723e-18 	0.941373196629255 	-0.0197301793003414 	0
5 	2.3016746645094 	-6.93889390390723e-18 	0.944556568339023 	-0.0189602510960701 	0
5 	2.33149416271872 	0 	0.947450033901013 	-0.0182176016191671 	0
5 	2.36025988816626 	6.93889390390723e-18 	0.950069335014526 	-0.0175006659740013 	0
5 	2.38800907947441 	0 	0.952428016850422 	-0.0168080388072623 	0
5 	2.41477765931295 	-6.93889390390723e-18 	0.954537671025383 	-0.0161384491942614 	0
5 	2.44060028090272 	-3.46944695195361e-18 	0.956408130042802 	-0.0154907397592718 	0
5 	2.46551037287586 	-6.93889390390723e-18 	0.958047621908111 	-0.0148638493949633 	0
5 	2.48954018255081 	-1.38777878078145e-17 	0.95946289169906 	-0.0142567990106764 	0
5 	2.512720817678 	-6.93889390390723e-18 	0.960659295357781 	-0.0136686798195931 	0
5 	2.53508228671037 	-6.93889390390723e-18 	0.961640869786402 	-0.0130986437495119 	0
5 	2.55665353765073 	-1.38777878078145e-17 	0.962410382403203 	-0.0125458956301333 	0
5 	2.57746249552636 	-6.93889390390723e-18 	0.962969362598625 	-0.012009686870722 	0
5 	2.59753609853934 	0 	0.963318116979786 	-0.0114893103953162 	0
5 	2.61690033293929 	0 	0.963455729879174 	-0.0109840966486338 	0
5 	2.63558026666389 	3.46944695195361e-18 	0.963380050307723 	-0.010493410525169 	0
5 	2.65360008179049 	6.93889390390723e-18 	0.963087666341758 	-0.0100166491074434 	0
5 	2.67098310584102 	1.04083408558608e-17 	0.962573867840704 	-0.00955324012770695 	0
5 	2.68775184198056 	1.38777878078145e-17 	0.961832598396464 	-0.00910264109114519 	0
5 	2.70392799814879 	1.04083408558608e-17 	0.960856397517799 	-0.00866433901823246 	0
5 	2.71953251516198 	1.38777878078145e-17 	0.959636334257603 	-0.0082378507794286 	0
5 	2.73458559382185 	2.08166817117217e-17 	0.958161933800559 	-0.00782272400679124 	0
5 	2.74910672106653 	2.42861286636753e-17 	0.956421098941585 	-0.00741853857382369 	0
5 	2.76311469519732 	2.42861286636753e-17 	0.954400028890554 	-0.00702490863619098 	0
5 	2.776627650214 	1.38777878078145e-17 	0.952083138407426 	-0.00664148522069148 	0
5 	2.78966307929018 	6.93889390390723e-18 	0.94945298084934 	-0.00626795933663878 	0
5 	2.80223785741904 	6.93889390390723e-18 	0.946490179203664 	-0.00590406556103126 	0
5 	2.81436826325886 	6.93889390390723e-18 	0.943173369443478 	-0.00554958601510248 	0
5 	2.82607000020647 	6.93889390390723e-18 	0.939479160364664 	-0.00520435460408924 	0
5 	2.83735821672613 	1.04083408558608e-17 	0.935382113163763 	-0.00486826133448818 	0
5 	2.8482475259599 	1.38777878078145e-17 	0.930854742035685 	-0.00454125645569832 	0
5 	2.85875202464506 	1.38777878078145e-17 	0.925867533592586 	-0.00422335410046887 	0
5 	2.86888531136304 	1.38777878078145e-17 	0.920388977481921 	-0.0039146350290791 	0
5 	2.87866050414343 	1.73472347597681e-17 	0.914385592783429 	-0.00361524802741992 	0
5 	2.88809025744591 	2.08166817117217e-17 	0.907821924233917 	-0.00332540948388152 	0
5 	2.89718677854204 	2.42861286636753e-17 	0.900660468812513 	-0.00304540069012868 	0
5 	2.90596184331818 	2.77555756156289e-17 	0.892861476536447 	-0.00277556249023042 	0
5 	2.91442681151997 	3.12250225675825e-17 	0.884382549196048 	-0.00251628704852423 	0
5 	2.922592641458 	3.81639164714898e-17 	0.875177936461108 	-0.0022680067152501 	0
5 	2.93046990419394 	3.46944695195361e-17 	0.865197398450974 	-0.00203118022250702 	0
5 	2.93806879722526 	2.77555756156289e-17 	0.854384463398504 	-0.00180627670929235 	0
5 	2.94539915768638 	2.77555756156289e-17 	0.842673850474958 	-0.00159375831048832 	0
5 	2.95247047508334 	2.77555756156289e-17 	0.829987736565932 	-0.00139406220423439 	0
5 	2.9592919035784 	2.77555756156289e-17 	0.816230395768826 	-0.00120758305602977 	0
5 	2.96587227384055 	2.77555756156289e-17 	0.801280485099008 	-0.00103465670684867 	0
5 	2.97222010447726 	2.77555756156289e-17 	0.78497980397628 	-0.000875545685252211 	0
5 	2.97834361306218 	2.77555756156289e-17 	0.767116555447656 	-0.000730426422391503 	0
5 	2.98425072677325 	2.77555756156289e-17 	0.747399657512519 	-0.000599376871294529 	0
5 	2.98994909265477 	2.77555756156289e-17 	0.72541780749282 	-0.000482365263749341 	0
5 	2.99544608751689 	2.77555756156289e-17 	0.700571273860706 	-0.000379247784977245 	0
5 	3.00074882748522 	2.42861286636753e-17 	0.671952241902437 	-0.000289714704933276 	0
5 	3.00586417721304 	2.08166817117217e-17 	0.638122421050652 	-0.000212772975443666 	0
5 	3.01079875876789 	1.73472347597681e-17 	0.596675027457645 	-0.000145981063816929 	0
5 	3.01555896020418 	2.08166817117217e-17 	0.543340050272807 	-9.16710057528431e-05 	0
5 	3.02015094383281 	2.08166817117217e-17 	0.470365086048829 	-6.93242766687183e-05 	0
5 	3.02458065419861 	1.38777878078145e-17 	0.366224031767229 	-5.03072486661602e-05 	0
5 	3.02885382577582 	1.38777878078145e-17 	0.227741867816044 	6.76586702267408e-06 	0
5 	3.03297599039165 	1.21430643318376e-17 	0.0755302340871721 	1.64834517283922e-05 	0
