/*--------------------------------*- C++ -*----------------------------------*\
  =========                 |
  \\      /  F ield         | OpenFOAM: The Open Source CFD Toolbox
   \\    /   O peration     | Website:  https://openfoam.org
    \\  /    A nd           | Version:  7
     \\/     M anipulation  |
\*---------------------------------------------------------------------------*/
FoamFile
{
    version     2.0;
    format      ascii;
    class       volSymmTensorField;
    location    "2000";
    object      bijDelta;
}
// * * * * * * * * * * * * * * * * * * * * * * * * * * * * * * * * * * * * * //

dimensions      [0 0 0 0 0 0 0];

internalField   nonuniform List<symmTensor> 
15600
(
(3.18157300322049e-05 -1.45713600497639e-07 -5.05537030005257e-25 -1.56057968332972e-05 -1.23130533348517e-23 -1.62050711913495e-05)
(3.73851951479135e-05 -1.34698570972429e-06 -5.49926299712834e-22 -1.83391233049038e-05 1.26220959391355e-23 -1.90403591639925e-05)
(1.52814017720193e-05 -2.38529068074326e-06 -2.23722210434551e-23 -7.37869405613861e-06 -6.20705921379165e-23 -7.9003373776336e-06)
(6.77191493761744e-08 -3.17214250830774e-08 -1.63993008903148e-19 -2.69691586988391e-08 7.61272337358068e-20 -4.07377681246427e-08)
(3.16107626180648e-06 -2.40650263735818e-06 -1.22335448548612e-18 -9.97401933233671e-07 5.62978550969697e-19 -2.16302535606874e-06)
(1.49353134897345e-06 -1.62996223507073e-06 2.59605308122684e-21 -2.38332064698906e-07 -1.49088596276566e-21 -1.25482279978616e-06)
(5.06635667906242e-07 -7.12210533412822e-07 1.02540390085425e-21 7.57086083303451e-09 -7.57494528870224e-22 -5.14052297626877e-07)
(2.61225619960418e-07 -4.31899877944261e-07 1.34109484083247e-20 4.28748637530865e-08 -1.43069778887658e-21 -3.04009271810771e-07)
(1.42879170928184e-07 -2.61700473789464e-07 -7.74018993057663e-20 3.93763827547664e-08 7.15635179379517e-20 -1.82200887949992e-07)
(9.350112087996e-08 -1.75941255205903e-07 -8.72857888382327e-20 2.88133698125975e-08 6.62220155657998e-20 -1.22277803682752e-07)
(6.37896946591155e-08 -1.1835635751233e-07 -8.86852663590358e-21 1.86300463285427e-08 9.90742223239303e-22 -8.23950200095575e-08)
(5.46544462947656e-08 -9.90029203975209e-08 -1.40625907459994e-25 1.44517990591497e-08 1.08027967738051e-25 -6.90855176258547e-08)
(5.43223545581789e-08 -9.7239738519631e-08 4.1585595288866e-23 1.36270094254806e-08 -2.60173336689008e-24 -6.79289832506111e-08)
(6.9112279692891e-08 -1.23083873349556e-07 1.94506959441424e-21 1.69477850119758e-08 -1.54121385839587e-21 -8.60342518480267e-08)
(1.11182111970614e-07 -1.95853575457624e-07 -2.0695500302503e-21 2.5947468000691e-08 1.63247873790046e-21 -1.37088449323444e-07)
(2.02173412986212e-07 -3.50213411910155e-07 1.18843517878332e-23 4.35541405863559e-08 -2.5795397268232e-24 -2.45653850047201e-07)
(3.63664942558369e-07 -6.12951375368578e-07 -1.23304244078986e-21 6.79843135553213e-08 7.37705980879913e-22 -4.31519787230632e-07)
(6.16395942323281e-07 -9.86907548114385e-07 -1.77978575600056e-21 8.37696102649813e-08 1.37099927321902e-21 -6.99955544924019e-07)
(9.87531147415046e-07 -1.4602005584353e-06 4.89567997918533e-21 6.22928365981638e-08 -2.92004849777376e-21 -1.04950909979485e-06)
(1.47641327501152e-06 -1.95985052915196e-06 4.62971720669548e-21 -3.56680081814256e-08 -3.77165131978377e-21 -1.44031312967748e-06)
(2.04162199692506e-06 -2.36011341575578e-06 2.28464356233846e-21 -2.41857146697376e-07 -1.42711182900057e-21 -1.79922502873691e-06)
(2.65190425382844e-06 -2.58392573420029e-06 -2.15896692618367e-21 -5.61195741444034e-07 1.6557527682198e-21 -2.09008142524811e-06)
(3.27597911885397e-06 -2.61675024421671e-06 -1.36909579927396e-20 -9.6077234812342e-07 5.48940829544714e-21 -2.31451234758396e-06)
(3.76208411110461e-06 -2.39021224060797e-06 -1.09659607340184e-20 -1.35322431918292e-06 4.28821812376938e-21 -2.4081372784868e-06)
(3.96776009654775e-06 -1.91158580142726e-06 -7.18782132246799e-21 -1.63300127003227e-06 2.79494288472579e-21 -2.33405853892504e-06)
(3.88365701438381e-06 -1.30275868977741e-06 2.7052794511106e-20 -1.74674790008481e-06 3.92438046379073e-20 -2.13626816975362e-06)
(3.44831511220113e-06 -6.63297783879797e-07 -2.24980145391272e-19 -1.6364051976179e-06 7.17670675004614e-20 -1.81136645030171e-06)
(4.87553935898451e-06 -4.20402447811153e-07 -1.76131620888105e-19 -2.36745255046791e-06 -3.77084406672774e-20 -2.50733453292916e-06)
(1.14513504453929e-05 -3.65200753819647e-07 7.80222177835627e-21 -5.6037705237036e-06 -7.62720379931119e-20 -5.84582599849746e-06)
(2.07320139002039e-05 -4.22711155713959e-07 -3.73850543281533e-29 -1.01593235189207e-05 3.21567191046105e-28 -1.05695192084033e-05)
(2.98638243003106e-05 -4.50835316188321e-07 -1.53499330264047e-20 -1.46381149670584e-05 1.29724193855575e-19 -1.52211425338121e-05)
(3.90386518063219e-05 -4.52570781383762e-07 -9.19467904750421e-20 -1.91373737466646e-05 1.50044209890438e-19 -1.98953088700773e-05)
(4.77013029241994e-05 -4.52065881406049e-07 1.12031877928938e-19 -2.33852495716004e-05 -1.64118127423129e-19 -2.43087599952646e-05)
(5.59055566728145e-05 -4.46674857453387e-07 2.15940279594278e-20 -2.74081544233999e-05 -1.77949502358539e-19 -2.84888547382419e-05)
(6.35803861025228e-05 -4.4244096699347e-07 8.36729363524663e-23 -3.11713602863634e-05 -5.43392141744492e-25 -3.23993050525673e-05)
(7.07578079363447e-05 -4.37132466475538e-07 8.65325230970684e-23 -3.46905937625157e-05 -4.92982078290175e-25 -3.6056396173177e-05)
(7.74244324674862e-05 -4.31413094326436e-07 -8.88876275389272e-23 -3.79593293006222e-05 2.78186589205159e-24 -3.94532660033467e-05)
(8.35774346495577e-05 -4.23953003827752e-07 2.06963961313785e-20 -4.09761960936424e-05 -1.9984457434893e-19 -4.25884607399117e-05)
(8.91937831624726e-05 -4.14394741779779e-07 -3.59551024713786e-19 -4.37299173755686e-05 -2.07495290814882e-19 -4.54502293544544e-05)
(9.42476668904338e-05 -4.02024048865203e-07 -5.38424935258708e-19 -4.62078444065598e-05 2.1313108795812e-19 -4.80254134189418e-05)
(9.87057875924032e-05 -3.86480551536656e-07 -2.08875793685805e-20 -4.83936573118361e-05 2.18917623663312e-19 -5.02970396596072e-05)
(0.000102534411412164 -3.67489442529279e-07 7.20032706406238e-24 -5.02708194740606e-05 -5.32365959817139e-24 -5.22479159957103e-05)
(0.000105700801127468 -3.44968085663467e-07 -5.55983903768011e-23 -5.18232829155155e-05 1.47100983125635e-25 -5.38613581884935e-05)
(0.000108177168752481 -3.19068244106182e-07 1.04931141156484e-22 -5.30374254269091e-05 -2.51754272934376e-25 -5.5123204710297e-05)
(0.000109943543564483 -2.90110794121891e-07 -7.40043436935997e-24 -5.39034565933542e-05 -2.75207732140459e-24 -5.602327830677e-05)
(0.000110990543148174 -2.58518540993745e-07 -1.65990703672682e-20 -5.44167755167842e-05 2.40412843536029e-19 -5.65567988948479e-05)
(0.000111319644222536 -2.24301680384276e-07 6.71938857044828e-19 -5.45781062777875e-05 2.43382652948629e-19 -5.67245188871769e-05)
(0.000110931054869778 -1.87502406983681e-07 7.83147700148636e-19 -5.43875557397114e-05 -2.40016291325723e-19 -5.6526539472259e-05)
(0.000109835352384293 -1.49322411116697e-07 1.45809667203665e-20 -5.38503117498181e-05 -2.41553627349342e-19 -5.59682484807149e-05)
(0.000108070636864033 -1.10897007733511e-07 -2.84789193948362e-23 -5.29850548514219e-05 -1.35686863208075e-24 -5.5069059642481e-05)
(0.000105681085099541 -7.28588670131105e-08 5.27139154606616e-23 -5.18134467290859e-05 -1.41708759355315e-24 -5.38514813103557e-05)
(0.000102719346063376 -3.58902176871559e-08 -9.70977778605224e-21 -5.03613009100062e-05 2.29445600863545e-19 -5.23423408806785e-05)
(9.92458807972651e-05 -6.2693074436327e-10 6.94544263408109e-19 -4.8658261354015e-05 2.29210775056335e-19 -5.05724461920673e-05)
(9.53267808228945e-05 3.23823592812755e-08 7.2796952254363e-19 -4.67367332827812e-05 -2.19481932176819e-19 -4.85754734406711e-05)
(9.10319365871321e-05 6.26777932963419e-08 7.35731576323225e-21 -4.46309844281916e-05 -2.1822410631899e-19 -4.63870346567932e-05)
(8.6433139977311e-05 8.99029792300509e-08 7.48756580613889e-26 -4.23762146043183e-05 -6.40152518480234e-25 -4.40437109382677e-05)
(8.16022483477874e-05 1.1380598570015e-07 4.8580184780465e-26 -4.00076555562204e-05 3.20389303645375e-25 -4.1582116908906e-05)
(7.66095431010931e-05 1.34238433672371e-07 -4.49314628555566e-24 -3.75597661687909e-05 -4.7663398200883e-25 -3.90380643417407e-05)
(7.15222816593563e-05 1.51148530956896e-07 -6.62577611748553e-24 -3.5065522517529e-05 -1.64852621634109e-25 -3.64458243010529e-05)
(6.6403513519124e-05 1.64571779109068e-07 4.00841941002421e-25 -3.25558373938999e-05 4.37244454337021e-25 -3.3837523852841e-05)
(6.13111426334313e-05 1.74619465735694e-07 2.55617066572349e-24 -3.00591006002002e-05 -4.20718739366371e-25 -3.12426682953687e-05)
(5.62972468343052e-05 1.81466924341442e-07 -8.15241336539081e-24 -2.76008453081304e-05 2.49007456053413e-25 -2.86877943271568e-05)
(5.14076436877583e-05 1.85338113408874e-07 -4.21615079916311e-24 -2.52035351987026e-05 2.4835904560754e-25 -2.61962488284411e-05)
(4.66816592030904e-05 1.86496765373146e-07 9.33257632191812e-24 -2.28864510797099e-05 -2.14275390908433e-25 -2.37880709883704e-05)
(4.21520916161907e-05 1.85230468429066e-07 8.05397232612277e-27 -2.06656731707262e-05 4.9597112519083e-25 -2.14799738088582e-05)
(3.78453497980819e-05 1.81842892370085e-07 9.65978040184328e-24 -1.8554148970772e-05 -4.25278827049294e-25 -1.92854146243023e-05)
(3.37817190935185e-05 1.76641135899898e-07 -9.1953166677858e-24 -1.65618236297979e-05 -4.92397528785611e-25 -1.72147305280686e-05)
(2.99757295726686e-05 1.69929835777068e-07 1.03622969752898e-26 -1.46958205005338e-05 4.2060005556157e-25 -1.52753260160244e-05)
(2.64366146995863e-05 1.62002441769041e-07 0 -1.29606660912982e-05 0 -1.34719066321008e-05)
(2.31688398982039e-05 1.53133056876299e-07 0 -1.13585491743337e-05 0 -1.18067483451288e-05)
(2.01726532031775e-05 1.43578999103031e-07 0 -9.88959082331615e-06 0 -1.02799780780077e-05)
(1.74446728332632e-05 1.33567903528003e-07 -5.39761002557771e-21 -8.55213254447951e-06 -1.13508423056507e-19 -8.8898730601428e-06)
(1.49784636813066e-05 1.23306625861829e-07 -8.21530759577868e-20 -7.34301878642079e-06 -2.12214853225384e-19 -7.63315471945243e-06)
(1.27649971302157e-05 1.12981602081968e-07 -6.28094485244942e-20 -6.25782246111596e-06 -1.76402596141181e-21 -6.50522290705137e-06)
(1.07930610210674e-05 1.02754173376233e-07 1.61938630706717e-20 -5.29104599856153e-06 1.79498728264185e-19 -5.50036474805399e-06)
(9.04977846521029e-06 9.27593531211601e-08 4.99917615977374e-21 -4.43637562854451e-06 8.25939080845362e-20 -4.6120190925636e-06)
(7.5209465281195e-06 8.3116090899009e-08 -1.89233141216582e-23 -3.68684752396105e-06 -1.09222142945293e-24 -3.83294900445714e-06)
(6.19151999674752e-06 7.39076356297552e-08 -5.26782509208137e-25 -3.03508495044737e-06 -1.75546875758302e-26 -3.15548830513449e-06)
(5.04584212037977e-06 6.52165013092164e-08 -5.00001184132126e-21 -2.47341137831638e-06 -6.45653983856677e-20 -2.57165916715574e-06)
(4.06815790251951e-06 5.70777495048427e-08 5.18365010720308e-20 -1.99410224100876e-06 -5.71160424650049e-20 -2.07343356923075e-06)
(3.24257896477896e-06 4.95506756172755e-08 9.08604654308111e-20 -1.58936751491303e-06 5.29204796613502e-20 -1.65271558560382e-06)
(2.55380526140565e-06 4.26236873007744e-08 3.83708318618685e-21 -1.25170596176891e-06 4.57985638770837e-20 -1.30170874795718e-06)
(1.98660963322913e-06 3.63512248975006e-08 -1.00985637467108e-23 -9.73651740191903e-07 3.39692111639836e-25 -1.01265406643463e-06)
(1.52704701201681e-06 3.06748569522631e-08 -1.99471334171388e-24 -7.48368456882821e-07 -3.83314742190087e-26 -7.78444998278817e-07)
(1.16116286394329e-06 2.56658692584154e-08 9.76937456902537e-24 -5.69014023347575e-07 1.93171301265333e-25 -5.91971231465365e-07)
(8.77028121562318e-07 2.12198321811087e-08 2.91748176380675e-23 -4.29741458017232e-07 -4.11738176145154e-25 -4.47152504377856e-07)
(6.62590145772112e-07 1.744162921711e-08 -3.76500620137467e-23 -3.24640438764823e-07 -8.14353896335759e-25 -3.37848342368114e-07)
(5.08388405459713e-07 1.41908961209327e-08 1.06819233321339e-23 -2.49075718237248e-07 1.77182327282536e-24 -2.59234908971949e-07)
(4.06227926601045e-07 1.15799869542244e-08 9.27269498413026e-24 -1.99026395574537e-07 -1.17259527292266e-24 -2.07139382996806e-07)
(3.49853420441649e-07 9.45352924733525e-09 -2.81479439910314e-23 -1.71429440779693e-07 -9.77992621123671e-25 -1.78370463171355e-07)
(3.450599214234e-07 7.57866865458884e-09 1.45748211292322e-25 -1.69119092453021e-07 8.50431397299558e-25 -1.75888057276026e-07)
(3.91003548625767e-07 6.24491146916724e-09 -1.13830271443949e-23 -1.91270939162061e-07 -7.90481257151386e-26 -1.99672701662427e-07)
(5.81723647584696e-07 3.27848095045528e-08 -4.22035853117458e-26 -2.82739923454354e-07 -5.62114678478612e-25 -2.98894046948539e-07)
(6.23899561947618e-07 1.22456544971787e-07 -4.26809984156482e-23 -2.9503278430312e-07 1.45134926199088e-22 -3.28768137339266e-07)
(5.03182939926226e-07 1.61099713430046e-07 2.69181315396881e-21 -2.27206999874784e-07 5.73255785373352e-22 -2.75893163824671e-07)
(3.35662424297979e-07 1.53326882498943e-07 -2.63314847309347e-21 -1.40137940639788e-07 -6.93689281000111e-22 -1.95465838042217e-07)
(1.4223176911717e-07 8.22688721601367e-08 5.66038307226948e-21 -5.38554901868355e-08 2.28245743331087e-21 -8.8349771348172e-08)
(1.89316807197719e-08 1.22988990198052e-08 9.84920737237573e-22 -6.68791811814751e-09 3.61017216094814e-22 -1.22400902073228e-08)
(2.00410220723441e-08 2.18103466655421e-08 9.14030364138079e-22 -3.2438431959973e-09 4.85300420354873e-22 -1.67921407303131e-08)
(2.10793823424849e-07 2.39696101170096e-07 -2.67850397836765e-21 -2.74923715921533e-08 -1.59422234736185e-21 -1.83246472393034e-07)
(6.52292985777825e-07 8.23223580554349e-07 -1.297430454828e-21 -4.06264009791108e-08 -3.82614567790291e-22 -6.11483121515931e-07)
(1.39122149581955e-06 1.90492726667018e-06 6.27238951373822e-21 -2.67050552415081e-09 3.96201085488923e-21 -1.38813450829471e-06)
(2.45067690173768e-06 3.56033482463388e-06 -7.71585888467677e-21 1.13297278277296e-07 -5.91811863832029e-21 -2.56320514156866e-06)
(3.87889623588747e-06 5.82777371018361e-06 5.34559543562468e-22 2.91838185961323e-07 -1.66994103557185e-23 -4.16948345171626e-06)
(5.5504463555093e-06 8.48039340750364e-06 -8.69841352870599e-21 5.01700663357551e-07 -6.86320114389242e-21 -6.0503317378174e-06)
(7.20360326508888e-06 1.11855484954495e-05 1.30597258282172e-21 7.59645407898534e-07 1.057949026149e-21 -7.9608601760849e-06)
(8.79650336676587e-06 1.39731131392702e-05 1.37545852212453e-21 1.11820468820131e-06 1.12909152754553e-21 -9.91173423731422e-06)
(1.03293579274947e-05 1.69099856728051e-05 1.42087462228899e-21 1.61904751526508e-06 1.18584287959597e-21 -1.19448216378879e-05)
(1.19127526615888e-05 2.02137275934191e-05 -1.07708788134825e-20 2.30429502353663e-06 -7.61146096321249e-21 -1.42127834236722e-05)
(1.37266127463742e-05 2.42614033160167e-05 -2.56614641916762e-21 3.25328997658669e-06 -1.31608523508399e-21 -1.69748097707344e-05)
(1.69208922780321e-05 3.06202366884338e-05 -1.07613744057572e-20 4.4426825158176e-06 -9.52256292444285e-21 -2.13571670029697e-05)
(2.32291724398371e-05 4.07868493494605e-05 -9.28324598633194e-21 5.29650437352332e-06 -7.48362259789576e-21 -2.85171208215148e-05)
(3.47276989988182e-05 5.56602510834698e-05 9.01501623166869e-21 4.62008826755421e-06 7.57437719674362e-21 -3.93359852905877e-05)
(5.76055284622442e-05 7.87869506115145e-05 3.21404195121221e-22 -3.86562555351748e-07 -5.33279420722649e-22 -5.72018036495718e-05)
(0.000102739875515946 0.000110781870767809 -2.66703419091714e-20 -1.70595662911742e-05 -1.62946142120824e-20 -8.56546102717951e-05)
(0.000189555508140079 0.0001420700162457 1.57113452102372e-20 -6.08650618941953e-05 7.8222106788759e-21 -0.000128651846831893)
(0.000239394449171204 0.000104309964187574 2.58258297556026e-22 -0.000103142731766869 6.25269835884534e-23 -0.000136210850062582)
(0.000163836471022367 3.28457064044978e-05 9.05620048840164e-23 -7.84617142100918e-05 -1.97536947606412e-22 -8.53491495066925e-05)
(6.56969704723074e-05 3.5387790618498e-06 -6.47325622568904e-22 -3.22374751477958e-05 -2.77977867735287e-23 -3.34494594830825e-05)
(3.11784585880884e-05 -2.75309595501729e-08 -2.24623347785924e-25 -1.52952735410379e-05 1.08241090449428e-23 -1.58784210443369e-05)
(0.00135358868060829 7.86916448625773e-07 8.80834816356178e-24 -0.000664515848586498 -5.27850328899749e-26 -0.000688866151508285)
(0.00122949107824999 -2.83667312850075e-05 3.15943103695446e-20 -0.000604853633834682 -3.19871191531145e-22 -0.000624450090652733)
(0.000716731718839147 -7.50405423089457e-05 6.863837874903e-19 -0.0003497541531747 2.54755839000718e-18 -0.000366867494408998)
(8.32139077950795e-05 -1.51584815578309e-05 -2.57858660069977e-17 -3.91105753220555e-05 2.25881300738732e-18 -4.40901041189529e-05)
(2.92330349464812e-05 -2.99481257480206e-05 2.08615683631358e-17 -5.5224249260886e-06 -1.1947956688845e-17 -2.37034982597386e-05)
(3.23189243392837e-05 -3.70349706739715e-05 8.97612182345532e-19 -4.42883974849283e-06 1.70668618977818e-19 -2.78817192384841e-05)
(1.26576912841855e-05 -1.81020709216707e-05 -3.10157485735038e-20 2.83915127251906e-07 2.16410449996314e-20 -1.29377247058551e-05)
(6.70957051125969e-06 -1.13749817912892e-05 -5.66317579895682e-19 1.24528896452338e-06 2.19411845000942e-20 -7.95247349513646e-06)
(4.0083221184647e-06 -7.41106051401892e-06 -6.63655676912258e-18 1.14196814206793e-06 4.97268315284002e-18 -5.14874548241009e-06)
(2.86650454901797e-06 -5.33256476702551e-06 -5.25194984973454e-18 8.46959023810461e-07 4.57557922230505e-18 -3.71234975651985e-06)
(2.25345258245191e-06 -4.01972028181916e-06 4.61310444186889e-19 5.61267551177155e-07 -4.09958665828194e-20 -2.81387588643841e-06)
(2.16121577151215e-06 -3.72012411763755e-06 4.51417808938514e-24 4.53525232442789e-07 -3.52216838419204e-24 -2.61395673850684e-06)
(2.41764402858184e-06 -4.06898621188604e-06 2.45096863666625e-21 4.48391727361983e-07 -1.27639444551891e-22 -2.8651761171448e-06)
(3.26248234396397e-06 -5.48390430525463e-06 -7.78256606634093e-20 5.99263055418574e-07 5.72566360633698e-20 -3.86058710742112e-06)
(5.1648467621813e-06 -8.71700578014624e-06 -4.8657958130316e-20 9.70692243094022e-07 3.59018640982924e-20 -6.13369871163247e-06)
(8.72389736111457e-06 -1.47639295689702e-05 5.49159776034417e-21 1.66824637971222e-06 -2.76420082332629e-22 -1.03890267211085e-05)
(1.44544733930939e-05 -2.4142803645103e-05 -7.24757570830968e-20 2.58417722920453e-06 6.45963902551767e-20 -1.70335400492263e-05)
(2.29062407550154e-05 -3.6633802416731e-05 2.23037017640792e-19 3.14096943599927e-06 -1.65227811466748e-19 -2.60393975904775e-05)
(3.47616240207681e-05 -5.15111969179989e-05 -1.49564881917177e-19 2.38269513703403e-06 1.00185566368904e-19 -3.71331780902683e-05)
(5.03642021354684e-05 -6.68321995314127e-05 -1.57286737441742e-19 -9.83712193583568e-07 1.24093288674888e-19 -4.93656787571392e-05)
(7.00696642917767e-05 -8.02416060145573e-05 2.11670954413469e-19 -8.28174486533441e-06 -1.50782154655422e-19 -6.17693867571482e-05)
(9.44282010633003e-05 -9.0127211148682e-05 -1.926375714571e-20 -2.02690556068401e-05 -3.35560404825875e-20 -7.41369021614823e-05)
(0.000123049388789057 -9.52103274766294e-05 3.76288619142122e-19 -3.65809777194576e-05 -1.51744837639012e-19 -8.64424757333457e-05)
(0.000153726977325408 -9.32821830212974e-05 4.08754522505711e-19 -5.58818229410891e-05 -1.40901400785713e-19 -9.78158067075393e-05)
(0.000183776660954193 -8.32206678735505e-05 5.26404550017274e-22 -7.60341663546901e-05 1.59015769331799e-20 -0.000107710178314381)
(0.000213415917585678 -6.70598220040428e-05 -1.61089553171842e-18 -9.573760739886e-05 -2.27262072609192e-18 -0.000117643013753049)
(0.000260242625140909 -4.95027002702915e-05 -4.45582090520805e-17 -0.00012250884608984 3.12242111237079e-18 -0.000137692467179728)
(0.000346180458269652 -3.63978312411931e-05 -4.89293852985705e-17 -0.000166774809431031 7.4650137855956e-18 -0.000179351837906156)
(0.00050781078182149 -3.11054427688881e-05 -1.31837593076261e-19 -0.000247203432402024 3.44751945973377e-18 -0.000260529182847954)
(0.000693475871707997 -3.02993682957433e-05 1.53051479275513e-27 -0.000338868427020203 -2.41614631287537e-26 -0.00035450108372658)
(0.000849107207413712 -2.71952917319295e-05 3.20744274196202e-19 -0.00041549340038229 -4.1175555844126e-18 -0.000433483748900938)
(0.000980740403371406 -2.38479390512858e-05 -8.51970083841962e-17 -0.000480255502534482 -2.06911679774929e-18 -0.000500334785389763)
(0.00109058063096756 -2.08491338602106e-05 -9.10209722006162e-17 -0.000534263988542815 6.48068318122388e-18 -0.000556149780804344)
(0.00118273419288702 -1.81399203811456e-05 -4.64388653338433e-19 -0.000579553694568949 4.64650982362252e-18 -0.000602999580352174)
(0.00125943881853128 -1.57602974579513e-05 4.22785434106861e-23 -0.000617237718780488 3.20299412241933e-22 -0.00064200847794523)
(0.00132280543077933 -1.35955652797167e-05 9.51036903365563e-23 -0.000648360189329129 -2.12803921289042e-22 -0.000674242948336389)
(0.00137412580541598 -1.1602138204481e-05 -6.36576541740547e-23 -0.000673561786953975 -1.08439292972744e-22 -0.0007003538912819)
(0.00141444021039775 -9.7165679967646e-06 -4.01588036532998e-19 -0.000693356624127436 4.3838353848757e-18 -0.000720867304450794)
(0.00144446174105889 -7.90790497484338e-06 9.58928763309456e-17 -0.000708097400113683 3.73458199790544e-18 -0.00073614347581595)
(0.0014647675721049 -6.15012478706373e-06 9.82081677024415e-17 -0.000718068901756808 -4.95624387605257e-18 -0.000746474705539947)
(0.00147582327783363 -4.43197475752173e-06 3.88779917942789e-19 -0.000723500732638868 -4.39391344374295e-18 -0.000752096893561526)
(0.00147805170001902 -2.74987538073416e-06 -5.8218974495374e-22 -0.000724601074655259 1.04965428293986e-24 -0.000753224635374153)
(0.00147186084422116 -1.10750558502052e-06 1.12787004795908e-21 -0.000721570652567055 1.01808985264488e-22 -0.000750065149605018)
(0.00145766374478811 4.85796175455984e-07 -1.1067150641669e-21 -0.000714612493658107 5.26256392459079e-23 -0.000742828380328826)
(0.00143588986642909 2.01762196495873e-06 6.05459313869713e-22 -0.000703937485445856 -1.52217917908221e-22 -0.000731732839177304)
(0.00140698915123777 3.47163100060903e-06 3.05963565030227e-19 -0.000689766091239471 -4.38663596590405e-18 -0.000717007936105077)
(0.00137143697939218 4.8374449832544e-06 -9.9285574848765e-17 -0.000672331273847358 -4.5982154985278e-18 -0.000698896015771115)
(0.00132915752705668 6.09739262739562e-06 -9.95182867317347e-17 -0.000651596985900531 3.89227364165868e-18 -0.000677357313639307)
(0.00128144842127264 7.22991696245978e-06 -2.79122664249514e-19 -0.000628200394351879 4.18806044624169e-18 -0.00065305209169973)
(0.00122881672276594 8.22151842039255e-06 5.34323881531509e-22 -0.000602389859091268 7.47961156267718e-23 -0.000626238973193669)
(0.00117260621115971 9.06976731709427e-06 -5.1505940547133e-22 -0.000574824153320564 -2.69773393491207e-23 -0.000597602759081549)
(0.0011135011396538 9.76987170902464e-06 2.06690970932482e-19 -0.000545839140379125 -3.87243632628056e-18 -0.000567491734727798)
(0.00105219467308902 1.03200904519438e-05 -8.7594940863065e-17 -0.000515774905391374 -4.61362439842981e-18 -0.000536258873946087)
(0.000989362419646757 1.07218170790029e-05 -8.638666019295e-17 -0.000484962909427588 2.76579425808568e-18 -0.000504248220624022)
(0.000925653583589104 1.09792369010944e-05 -1.7868005975108e-19 -0.000453721647887637 3.5712025282261e-18 -0.000471790384431011)
(0.00086168324023636 1.10991331379545e-05 1.08060382173705e-24 -0.000422352849570936 -1.04482824865771e-23 -0.000439198617902776)
(0.000798025732778162 1.10904659827387e-05 9.80936014974773e-25 -0.000391138240483346 -1.04823962694092e-23 -0.000406765450455495)
(0.000735209403712103 1.09639572863282e-05 -2.23393341098776e-22 -0.00036033695896655 -8.13021263177947e-25 -0.000374760005499979)
(0.000673712618345339 1.07316401747499e-05 1.6453744146797e-22 -0.000330183606983622 9.75321348172063e-24 -0.000343425973265927)
(0.000613961051347741 1.04064145411132e-05 -5.40370529009203e-23 -0.000300886921022097 -8.50028944694035e-25 -0.000312980226867238)
(0.000556326124601001 1.0001651883017e-05 1.59874453903069e-24 -0.000272629008166916 -3.19858681752831e-26 -0.000283612024317578)
(0.000501124507499888 9.53082336566237e-06 9.59969538099309e-23 -0.000245565105415203 -9.43374852623479e-24 -0.000255482749594557)
(0.000448618558475707 9.00716683989029e-06 -1.8563479282935e-22 -0.000219823798372351 7.00809047171498e-24 -0.000228726135400266)
(0.000399017561436662 8.44346356822455e-06 5.1470506701082e-24 -0.000195507631604007 8.25544166091932e-24 -0.000203448889061859)
(0.000352479709399396 7.85176676604484e-06 7.92827624614457e-23 -0.000172694086565215 -5.93582530135934e-24 -0.000179731697932311)
(0.000309114728419668 7.24327520280465e-06 -1.59472600393765e-22 -0.000151436870844954 -3.81808157752489e-24 -0.000157630563676221)
(0.000268986953264349 6.6281793325376e-06 2.93369434942305e-22 -0.000131767430723483 7.42131110778348e-24 -0.000137178364915629)
(0.000232118797877587 6.0156083231192e-06 -1.35348209199684e-22 -0.000113696655747856 -3.61813015193091e-24 -0.000118386622591)
(0.000198494553454262 5.41355966098634e-06 1.27990111047375e-22 -9.72167469957311e-05 3.61784711024809e-24 -0.000101247429192046)
(0.000168064319189924 4.82884375123627e-06 4.24230366926269e-25 -8.23031447102112e-05 1.26946787142757e-26 -8.57354512720107e-05)
(0.000140748190005142 4.26719412408175e-06 1.12627882572268e-22 -6.89165854108316e-05 -1.94233555121322e-23 -7.18100594219665e-05)
(0.000116440312683673 3.73317679189018e-06 -2.02932088156862e-20 -5.70050931692665e-05 1.76902308303918e-18 -5.94173925139519e-05)
(9.50128898381211e-05 3.2304342845538e-06 3.26518952053006e-17 -4.65059327204459e-05 4.45091574380967e-18 -4.84924079403753e-05)
(7.63198219167788e-05 2.76182789724027e-06 5.89619845891908e-17 -3.7347399679582e-05 2.3427281957033e-18 -3.89607328484034e-05)
(6.01998970652597e-05 2.32940963208573e-06 2.63714650663993e-17 -2.94503907725574e-05 -1.51506569734254e-18 -3.0740283285416e-05)
(4.6480234982151e-05 1.93447448086028e-06 2.71132681472605e-20 -2.27300875082774e-05 -1.17311733515756e-18 -2.37430238543553e-05)
(3.49791446942563e-05 1.57776025680174e-06 3.63232417187917e-22 -1.70973606724923e-05 -2.00146994341674e-23 -1.787642055925e-05)
(2.55092142271287e-05 1.25926690563822e-06 -1.01286427443781e-22 -1.24602862635039e-05 -1.68003340504737e-23 -1.30450140680148e-05)
(1.78793960172142e-05 9.78721155274044e-07 -3.39724685473181e-20 -8.72516295676435e-06 7.95783810061712e-19 -9.15148733967588e-06)
(1.18979419155096e-05 7.35153952387649e-07 1.22009012406487e-17 -5.79795985856564e-06 1.51389207468806e-18 -6.09815242825263e-06)
(7.37299857213182e-06 5.27665374889552e-07 9.65040401242908e-18 -3.58459242060386e-06 2.67508051818721e-19 -3.78726985694142e-06)
(4.1156882631722e-06 3.54673799995679e-07 5.20710418489759e-20 -1.99245776464798e-06 -3.93186471922166e-19 -2.12259365674302e-06)
(1.93842478016998e-06 2.15058981171182e-07 -8.71205654933498e-24 -9.29563762677656e-07 -4.7691191555541e-24 -1.00855841970663e-06)
(6.58155898070365e-07 1.07117864412623e-07 -7.08216883496592e-23 -3.06182901126876e-07 -9.98838402971946e-24 -3.51867426158563e-07)
(9.21617266910114e-08 2.98840750842775e-08 2.20164926803143e-23 -3.26753213318474e-08 1.60788612995088e-23 -5.94685630060268e-08)
(6.00078891803293e-08 -1.77277256974666e-08 2.01154827174944e-23 -2.05906288684001e-08 -7.35346711599333e-24 -3.94054374983983e-08)
(3.79347580446036e-07 -3.65123022988047e-08 -1.30969414227753e-22 -1.80336224542896e-07 2.22359263059377e-23 -1.98951664434663e-07)
(8.63928286215809e-07 -2.64385696332579e-08 1.27387475479577e-22 -4.20458516642003e-07 -1.25366965531704e-23 -4.433367552458e-07)
(1.32601868294358e-06 9.93132114162774e-09 1.64505288174787e-22 -6.48304776811121e-07 3.41867977847193e-24 -6.77510632615325e-07)
(1.58593596225032e-06 7.0198113988122e-08 -2.83826858071818e-22 -7.748062704932e-07 -6.22919708056416e-24 -8.10886401507643e-07)
(1.47080100324191e-06 1.40961123086195e-07 4.27947487408666e-26 -7.13233134453402e-07 1.60191882995285e-25 -7.57340643872851e-07)
(9.47936580766596e-07 1.86951977956595e-07 3.71524294598147e-24 -4.51347824875172e-07 6.48187418428913e-25 -4.96439809054024e-07)
(2.15851149662761e-07 1.08903660478125e-07 9.27573305133245e-22 -9.57817018027615e-08 3.66086886680705e-22 -1.20033434228368e-07)
(1.66568727531203e-07 1.82772384569302e-08 6.32894456355274e-21 -9.55586976730504e-08 3.44013708063536e-22 -7.09887311089448e-08)
(5.17477646229993e-07 5.38926199902069e-08 1.52502323316786e-20 -2.70289987399659e-07 1.14578263868183e-21 -2.47113517360979e-07)
(1.49871467590798e-06 2.79867008219655e-07 -1.5542445519337e-20 -7.30608448732109e-07 -4.15386471935649e-21 -7.67875841384873e-07)
(3.67328582936571e-06 1.28605053739162e-06 7.35458258430903e-20 -1.64408583503528e-06 1.10906793028334e-20 -2.02859135605979e-06)
(7.41722079364925e-06 3.78635668783936e-06 9.66302048939922e-20 -2.95944121144155e-06 3.39376548898464e-20 -4.45644251574633e-06)
(1.30598198129544e-05 8.93211077536256e-06 -1.27432687697074e-19 -4.37151132036541e-06 -4.84423002924738e-20 -8.68570252123548e-06)
(2.11812926816848e-05 1.8246693382072e-05 1.61481891365461e-19 -5.47017338168505e-06 6.68034912705331e-20 -1.57064069066884e-05)
(3.20225807701178e-05 3.33721102048661e-05 -1.80572063010811e-19 -5.49159126262931e-06 -9.88722880283015e-20 -2.65230318021773e-05)
(4.59752533394664e-05 5.55664277105207e-05 -1.93951701286992e-19 -3.9183019881204e-06 -1.17693610828361e-19 -4.20443367888531e-05)
(6.32182285411887e-05 8.56246872037216e-05 1.30585341800599e-19 -3.62218351163404e-07 8.76003979035227e-20 -6.28371571575747e-05)
(8.46228805298873e-05 0.000124109595291717 -1.70756073561004e-19 4.85040142645856e-06 -1.05751157321094e-19 -8.94464453390825e-05)
(0.00010984543578693 0.000169613247425528 2.21602599135763e-19 1.1222424166113e-05 1.75736406676706e-19 -0.000121031546857676)