/*--------------------------------*- C++ -*----------------------------------*\
  =========                 |
  \\      /  F ield         | OpenFOAM: The Open Source CFD Toolbox
   \\    /   O peration     | Website:  https://openfoam.org
    \\  /    A nd           | Version:  7
     \\/     M anipulation  |
\*---------------------------------------------------------------------------*/
FoamFile
{
    version     2.0;
    format      ascii;
    class       volScalarField;
    location    "2000";
    object      epsilon;
}
// * * * * * * * * * * * * * * * * * * * * * * * * * * * * * * * * * * * * * //

dimensions      [0 2 -3 0 0 0 0];

internalField   nonuniform List<scalar> 
15600
(
0.0497494573215522
0.0413910788889914
0.0210453308963996
0.00669853101676758
0.000842752588705252
0.000168996511293331
0.00013661936194378
8.7816497774713e-05
7.28210226068275e-05
5.90516627173946e-05
5.13507885786269e-05
5.02725010059036e-05
5.51552145759122e-05
6.60652707290432e-05
8.6374469883485e-05
0.000119724667141798
0.000169235089844039
0.000234457794617196
0.000315213558408192
0.000408886097779219
0.000509334532909576
0.000609107018551849
0.000710565430644493
0.000810752638612517
0.000897592417361821
0.000961494605922967
0.00101321804309736
0.001088774656363
0.00143000737696261
0.00200098170898412
0.00257797283925871
0.00315795835393011
0.00373958173252814
0.00432156059074967
0.00490417791812956
0.00548820768927143
0.00607345786841573
0.00665952412019735
0.00724518957150721
0.00782884654785663
0.0084084160237043
0.00898158373551104
0.00954599426374745
0.0100995893256099
0.0106412142976075
0.0111710966252462
0.0116896043974343
0.0121913258453689
0.0126517435603256
0.0130676353562139
0.0134444038740019
0.0137795092486061
0.0140713199316213
0.0143187949204463
0.0145215023795681
0.0146795946615466
0.014793761368815
0.0148651725362508
0.0148954125128866
0.0148864109297073
0.0148403737665397
0.0147597159806444
0.0146469979603145
0.0145048704803621
0.0143360162200707
0.0141431062875097
0.0139287574928535
0.0136954992689356
0.0134457373393097
0.013181727618171
0.0129055500173482
0.012619089786828
0.0123240437425201
0.0120219513053892
0.0117141768339854
0.0114018904180055
0.0110860919160234
0.0107675319022762
0.0104467776930137
0.0101240405302134
0.00979934116584299
0.00947208822931224
0.00914152768482368
0.00880570122343256
0.0084626394719362
0.00810785801651598
0.0077375488394069
0.0073424786461358
0.00691658113022316
0.00644269506425494
0.00591808043726996
0.00527694377881438
0.00481278097501499
0.00502833732660626
0.00551436250554541
0.00629342468445717
0.00725260921149262
0.00846904919106685
0.00998948465628032
0.0119262881195391
0.0141301785265065
0.0165463659909317
0.0190456769748352
0.0215233066968209
0.0235710467261503
0.0254255290978049
0.0274002446420523
0.0297098914390038
0.0326792721923633
0.036947399184811
0.0438615834379561
0.0530117860063931
0.0652128127587929
0.0820741200135642
0.103491648735527
0.118375267695301
0.0936877030560235
0.0675541775472367
0.0512672397228112
0.0513878867840579
0.281187161644347
0.234931261261268
0.12863634582497
0.0399785932150696
0.00507411923540492
0.000996699586316049
0.000759669160626847
0.000488483212768236
0.000402674019547389
0.000326380969095184
0.000282619219859137
0.000275112191276254
0.000300401931221669
0.000358950229276297
0.000468710978783511
0.000650057404615589
0.000920588423973875
0.00127875791144736
0.00172331989694383
0.00223877809493216
0.00278981713988834
0.00333754285229576
0.00389193692885038
0.0044465513528568
0.00494325230253338
0.00531833787801102
0.00563449387350574
0.00627587465894755
0.00844296381516337
0.0117000892806862
0.0149472561144977
0.0181805331873215
0.0214020213514073
0.0246056799091866
0.0277959858983725
0.0309739853395249
0.0341368167608998
0.037278740270715
0.0403904444686846
0.0434604527874397
0.0464754986776978
0.0494217145221064
0.0522858725229897
0.0550572911033388
0.0577308023171931
0.0603090034287656
0.0627993744320646
0.0652003445835031
0.0673931422702797
0.0693867502528601
0.0711659143386495
0.0727225927652628
0.0740527611689827
0.0751552478987021
0.0760316703895929
0.0766861963654113
0.0771252278192461
0.0773570670767828
0.077391566520729
0.0772397891603114
0.0769136901306101
0.0764258217581701
0.0757890685501227
0.0750164289908282
0.0741207856492018
0.0731147470130501
0.0720104909724478
0.0708196508507979
0.0695531817906876
0.0682212661885409
0.0668332223502465
0.0653974266977635
0.063921370538665
0.0624118176690745
0.0608747238042777
0.0593151550741073
0.0577374004054063
0.0561445797086676
0.0545389678115466
0.0529211120145937
0.0512906633224043
0.0496442073459775
0.0479775531956872
0.0462803387488744
0.0445421794939972
0.0427395930929569
0.040852569574107
0.0388325370216324
0.0366470106264896
0.0342038218483829
0.0315099453692001
0.0283040093225179
0.0259831530386875
0.0270286191166032
0.0296434831966668
0.0338487152431393
0.0390263208803925
0.0456090168396939
0.0538433183992468
0.0643075965488501
0.076173809486503
0.0891845101906821
0.102656155521993
0.116022946570294
0.127168816406935
0.137491117593208
0.148645857681293
0.161778163141609
0.17875380659615
0.203246457582746
0.242682518588472
0.294662117460307
0.364248304439011
0.459988866330539
0.578631963811087
0.659725036832539
0.569462921931639
0.438334206775552
0.328478395101235
0.298164075523038
0.672972797358073
0.555091362923613
0.335271936439219
0.108826271716255
0.0139194783405634
0.00258579091936575
0.00183903848121244
0.00118845304234606
0.000977320406491884
0.00079283571635824
0.000685119402269092
0.000664516669046041
0.000723194482231313
0.000861337499440978
0.00112201631991728
0.00155445581983596
0.00220120660776212
0.00305742820588213
0.00411529738001109
0.00533175196789339
0.00661920074648557
0.007886580373355
0.0091575413379356
0.0104225861742134
0.0115384368069837
0.0125138325691896
0.0136383778785813
0.0154230335171658
0.0201581780620215
0.0265795068578174
0.0325777415360922
0.038219444236246
0.0435795271985023
0.048686423200706
0.0535799692511433
0.058284193387474
0.0628153233446037
0.0671829946630414
0.0713914853318762
0.0754417626520738
0.079332453884143
0.0830612153335002
0.0866262021834317
0.0900284269178552
0.093276739060521
0.0963871401971257
0.0992879412722132
0.101840127169444
0.104155985063061
0.106237276658722
0.108074777021591
0.109668530357443
0.1110201081166
0.112132770943519
0.113011398192382
0.113662342794291
0.11409324840286
0.114312855706476
0.114330801342882
0.114157423056223
0.113803575100518
0.113280454673306
0.112599446182975
0.111771981779917
0.110809394068634
0.109722803190789
0.108523007559453
0.107220389669014
0.10582481135722
0.104345525605747
0.102791077743691
0.101169237369007
0.0994869880635476
0.0977506269992521
0.0959657014016072
0.0941369147086077
0.0922681372129291
0.0903621041934876
0.0884204588552287
0.0864431159545359
0.0844284673461683
0.0823718302689732
0.0802663348399759
0.0780988975097189
0.0758534083279539
0.0735002316592459
0.0710073051400487
0.068310893533954
0.0653533384606212
0.0619940540090812
0.0581471964016646
0.0533007505184414
0.0496875160352244
0.0513017082484852
0.0555787669425112
0.062466001415302
0.0713452569578895
0.0827085535996556
0.0970517143251466
0.114998521510408
0.135590602601497
0.158332895290933
0.182425997629214
0.207040805087855
0.229940052463331
0.25270451418579
0.277745854950763
0.307138678315855
0.343778344366902
0.393179176333665
0.464796907162498
0.555348487873326
0.666702174553452
0.798961312028725
0.937875119050016
1.03309231325979
0.980101635128355
0.895561238552012
0.805618879904462
0.750710334567727
0.801800182336206
0.681745487362378
0.508979383089296
0.229338253471725
0.0309558495503339
0.0048458472635593
0.00309716224787141
0.00202938887950985
0.00167519780419337
0.00136459257168512
0.00118169556464983
0.00114735780673794
0.00125056242908018
0.00149361644972463
0.00195115557502664
0.00270360496108632
0.00380446076648376
0.00521139580579629
0.00685635054767639
0.00861511871491361
0.0103322135331446
0.0119075733839416
0.0134089375258625
0.0148883966888232
0.0163462771935203
0.0179578180107322
0.0199358890718536
0.0224226940670608
0.0268903568239659
0.0322993669803827
0.0371978500139396
0.0417467042126643
0.0460558330007653
0.0501626906378873
0.0541068063414619
0.0579097901202391
0.0615863322648912
0.065144596175106
0.0685881770925155
0.0719174113180771
0.0751303312705521
0.0782236790612842
0.0811940172196423
0.0840382652708954
0.0867472404473096
0.0892592313077134
0.0915537171221247
0.0936134113730239
0.0954968755899525
0.0971956178739389
0.0987043323029304
0.100022821277326
0.101151813773182
0.102093410169347
0.102850977015124
0.103429036494913
0.103833131498873
0.104069679255016
0.104145820811287
0.104069273831445
0.10384819157421
0.103491030636986
0.103006430372312
0.10240310115057
0.101689715109472
0.100874811586801
0.0999667127031525
0.0989734465340722
0.0979026743091677
0.0967616254360952
0.0955570271854903
0.0942950620831456
0.0929813194873573
0.0916208221237327
0.0902180075940613
0.0887766700625282
0.0872999259288917
0.0857900871247067
0.0842485536402304
0.0826755801572291
0.081070072075209
0.0794290714401506
0.0777474632136556
0.0760166435560003
0.0742244080836595
0.0723512950708101
0.0703725724100055
0.0682461372402281
0.0659255757997513
0.0633114478709337
0.0602673467324977
0.056389193823847
0.0533721454242075
0.0543609168780042
0.0580150434407551
0.0640981535598629
0.0722960640330098
0.0828515748680958
0.0961874188962668
0.112609408066945
0.131529113840454
0.152462108759552
0.174883685929539
0.198170342547358
0.22128490789497
0.245251708068845
0.271908291701622
0.303146463627854
0.341232495773982
0.389860472941524
0.45346768227133
0.529113756668498
0.613723786328588
0.700784460306719
0.779755201668501
0.837446617528807
0.837417093025938
0.812190588541315
0.833225406942022
0.857996456431221
0.707591524782786
0.630383790877226
0.553145938775773
0.355407315871834
0.0665776105039189
0.00794077123952974
0.00425262098010865
0.00285404870398248
0.0023875684432046
0.00196511267510119
0.00171646621540208
0.00167919270893111
0.00184378802367881
0.00221906953260002
0.00290322032489711
0.0039734124004393
0.00541946082453334
0.00708502196920356
0.00880252169799775
0.0104189656163331
0.0118499361967395
0.0131204376708795
0.0143685382843613
0.0157126032310056
0.0172559563842891
0.0191515957204366
0.0214428268428363
0.0241105212634822
0.0277212114248833
0.0317972019434469
0.0356431457805686
0.0393212485282025
0.0428684713067976
0.0462930956116103
0.0496109299207616
0.0528298938928309
0.0559553299835023
0.0589891811206432
0.0619309318668297
0.0647781196767356
0.0675268593696533
0.0701722920370663
0.0727085333621492
0.0751255373822205
0.0773926261080786
0.0794897336812285
0.0814117507086795
0.0831588417832454
0.0847566102283037
0.0861973989148474
0.0874783685114934
0.0885993098242355
0.0895608547642521
0.0903647725790763
0.0910138752018318
0.0915119279814827
0.0918635416361924
0.0920740536926854
0.0921494066439586
0.0920960278142893
0.0919207135543253
0.0916305204889051
0.0912326649269403
0.090734429469935
0.0901430742116997
0.0894657558753866
0.0887094575010216
0.0878809244446463
0.0869866079928196
0.0860326142257767
0.0850246528117085
0.0839680030738984
0.0828674619250444
0.0817273398568681
0.0805514584159195
0.079343114492206
0.0781050406230126
0.0768393463645419
0.0755473955819528
0.0742297151195372
0.0728857305952511
0.0715136153579925
0.0701097512688489
0.0686683687177299
0.0671805687705953
0.0656332818049352
0.0640083074501421
0.0622775124684219
0.0604060484901271
0.0583259122328529
0.0559190663937379
0.0529189350001201
0.0504895817048079
0.0509148812983111
0.053766963489943
0.0587246222651254
0.0655725089660271
0.0744123317223981
0.0855291427822145
0.0990610839039981
0.114625550007029
0.131816078274677
0.150253538346949
0.169487488012288
0.189024089743856
0.209503368436118
0.232170540277008
0.258435638231337
0.28988357653304
0.328772078872413
0.377068268795312
0.432908185772932
0.493276036535924
0.55262298831324
0.604733256550124
0.646380066724563
0.668126251330129
0.664140299541993
0.69277447191947
0.728125861167373
0.591544359997887
0.545785921374189
0.521267328065573
0.440901735442343
0.125968905718921
0.0126897212231959
0.00504597891474167
0.00347433949696009
0.00298046620757563
0.00250084325008641
0.00222087780997858
0.0022026689592334
0.0024425800192603
0.00295242775902129
0.003815089293354
0.00503886670464665
0.00650390285057277
0.0079964918953693
0.00938238436035251
0.0106111162626709
0.011709913967561
0.0127653388855435
0.0139026546355917
0.0152327906576199
0.0168556856707579
0.0188542546469603
0.0212098225236348
0.0238840719726457
0.0270462827231615
0.030457194693951
0.0337664115075702
0.0369781205281596
0.0400965187123501
0.0431219601250861
0.0460609328945993
0.0489167173815956
0.0516911470628798
0.0543840157107831
0.0569934683909984
0.0595162749175388
0.0619480871022837
0.0642834420632054
0.0665146500893722
0.0686272447194844
0.0706022034811403
0.0724319254926175
0.0741140681929834
0.0756514770980915
0.0770552937986931
0.0783198792915688
0.0794435540118176
0.0804261885118436
0.0812684526080739
0.0819719858854265
0.0825393223140721
0.0829738159789244
0.0832795507445599
0.0834612398116985
0.0835241218938473
0.08347385792556
0.083316430976495
0.0830580518706686
0.0827050710523207
0.082263897122912
0.0817409201968153
0.0811424404477812
0.080474606518984
0.0797433600757977
0.0789543885624787
0.0781130824275829
0.0772244954310021
0.0762933143203687
0.0753238108765967
0.0743198244638704
0.07328476464661
0.0722215898164102
0.071132770463659
0.0700202599287668
0.0688853845143221
0.067728806540834
0.0665502791714664
0.0653486289333403
0.064121215687836
0.0628639248448185
0.0615700694674574
0.0602302990674175
0.0588308088764041
0.0573514453178834
0.0557653845472793
0.0540231489791881
0.0520312033602277
0.049615111777135
0.0475917510468342
0.0476869812286803
0.0499554482116358
0.0540870170180385
0.059898909364372
0.0674222079981483
0.0768415724616556
0.0882117471715556
0.101251817942827
0.115621890401106
0.131019522914029
0.147103466325755
0.163616398304867
0.181003770602333
0.200144550891233
0.222090001270494
0.24799828491491
0.279366774298824
0.317195492445228
0.360302254045833
0.406414967836262
0.451330924018066
0.490754766371545
0.523342907704523
0.548863611076639
0.555857746128398
0.575555767312661
0.598072563454497
0.501083816572674
0.472121444204132
0.466093557413411
0.476992897718009
0.199704817646746
0.0212574007672139
0.00548657407532954
0.00374389682518062
0.00332514302333771
0.00287017782023159
0.00260914169328318
0.0026320288122992
0.00294226408217719
0.00354219470778032
0.00446434553516425
0.00564189818843875
0.00691483828628477
0.00812185229493791
0.00921117288485441
0.0102013286978822
0.0111534338527939
0.0121509630304183
0.0132901907464702
0.01466179393639
0.0163420688408883
0.0183724597848622
0.0207289687640046
0.023373324398141
0.0263070000295003
0.0293679073397087
0.0323648300112618
0.0352864358307677
0.0381274569989234
0.0408876461455296
0.0435698267692215
0.046175702410672
0.0487056915343876
0.0511588403672845
0.0535328916719914
0.0558244864106003
0.0580292273125172
0.0601414165312014
0.0621528734604562
0.0640501561977891
0.0658235553514032
0.0674683738690807
0.0689834660839215
0.0703711680551383
0.0716361604336951
0.0727743760690572
0.0737847026680583
0.0746670908444132
0.0754222475999826
0.0760517317503513
0.0765578955280471
0.076943821257822
0.0772132433919559
0.0773704604469705
0.0774202431554077
0.0773677422232567
0.0772183985098021
0.0769778578851515
0.0766518912041729
0.0762463207471783
0.0757669513026431
0.0752195051543032
0.0746095662081037
0.0739425302956418
0.0732235634824333
0.0724575647519138
0.0716491333917972
0.0708025409429369
0.0699216880575305
0.0690100811059268
0.0680708364171632
0.0671066685523243
0.0661198585441928
0.0651122395202701
0.0640851039876177
0.063039191599059
0.0619744780089094
0.0608902132184328
0.0597844439216123
0.0586541513368972
0.0574942366595533
0.0562977035691231
0.0550538946332973
0.0537477554135491
0.0523582743904646
0.0508477920569258
0.0491428161022118
0.0471286328384038
0.0453978955952165
0.0453056706492983
0.0471570543246352
0.0506926575210011
0.0557473567549534
0.0623133564556484
0.0705066128113373
0.0803348604964494
0.0915725403895791
0.103929947227432
0.117152936497913
0.13097412406517
0.145258079291225
0.160350027062649
0.176908765152253
0.195747397250492
0.217761413261585
0.244030402664803
0.275128999356741
0.310253417237964
0.347698652324888
0.384169893684938
0.416240854450777
0.442734302035122
0.466104365683447
0.477992432549715
0.493260387767924
0.505431921535523
0.435225847914255
0.414981391187388
0.411984846860291
0.475008026225143
0.270073259405361
0.03726342413968
0.00605860466921461
0.00369506030264827
0.00339557981586341
0.00303257328778667
0.00283164794995145
0.00290705224204345
0.00326869523967554
0.00390384006561522
0.00479766846490395
0.00585095221057858
0.00692502357220245
0.00792557148559553
0.00884766127786466
0.00973111769688924
0.0106383052171984
0.0116403322813553
0.0128133315239731
0.0142305316154968
0.0159480735198293
0.0179889308995055
0.0203364493657372
0.0229455458080685
0.0257356062059246
0.0285787489967859
0.031368031189862
0.0340898896218243
0.0367365024896113
0.0393081143839247
0.0418057809004884
0.0442305744093566
0.0465822759992104
0.048859695937563
0.0510605206663183
0.0531814866152198
0.0552183212878067
0.0571653773940694
0.0590146935733616
0.0607564584104051
0.0623845742978376
0.0638958311375438
0.0652894728110683
0.0665668430686059
0.0677295845367952
0.0687747004972399
0.0697013718146674
0.0705096054185832
0.0712001228142484
0.0717744140127877
0.0722346925394761
0.0725838404555438
0.0728253393851363
0.0729631911865016
0.0730018343175114
0.072946059022737
0.0728009243541572
0.072571679071876
0.0722636869496751
0.0718823584859782
0.0714330870192981
0.0709211881151553
0.0703518475247219
0.0697300753895391
0.0690606680765772
0.0683481745782925
0.0675968683754192
0.0668107211791673
0.0659933636714653
0.0651480599057135
0.0642777121426412
0.0633848558638793
0.0624716334172199
0.0615397880103363
0.0605905873134146
0.0596248240388704
0.0586426389839866
0.0576435866147733
0.0566262435445558
0.0555883815136465
0.0545260523469913
0.0534339254440515
0.0523037185128267
0.0511239232517587
0.0498779477154495
0.0485362630873864
0.0470408874689846
0.0453162685770886
0.0438062094575586
0.0436073807046787
0.0451519535653769
0.0482418741122142
0.0527272007186225
0.0585770218421383
0.0658591246410843
0.0745519001530664
0.0844625871090373
0.0953391336196584
0.106961844554017
0.11911727484665
0.131741494925705
0.145123973520137
0.159784866219124
0.176376312333841
0.195622636262592
0.218354570727243
0.244938926662506
0.274790398078981
0.306573661441105
0.337561480027413
0.36473294750554
0.386727038261418
0.406463908881056
0.419582776305455
0.433196648655361
0.440144638036368
0.386353230767353
0.371102672666258
0.366315076634699
0.452224434957157
0.324919467808147
0.0632026951631065
0.00755587336262912
0.00353160223097471
0.00328804556484238
0.00304154100963675
0.00291593085566196
0.00304300691340511
0.00343809936500075
0.00407640104996089
0.00491529648129138
0.00585421527736218
0.00678822951653188
0.00766669420832822
0.00850418517774443
0.00934495246425179
0.0102471214305866
0.0112722135784487
0.012483075214325
0.0139390974028869
0.015682318116203
0.0177281166616324
0.0200649580405166
0.0226368945736142
0.0253223573392186
0.0280161285029914
0.0306582280142431
0.0332359993194489
0.0357411048774159
0.0381741971119532
0.0405353824888984
0.0428254674018336
0.045043955996832
0.0471896471741527
0.0492603226583316
0.0512529085409177
0.0531633633698427
0.0549863972507748
0.0567147020926122
0.0583415646978594
0.0598625146156267
0.0612751268736317
0.0625786621700974
0.0637735915123907
0.0648600669777004
0.0658357947500935
0.0667001086983136
0.0674530447116084
0.0680953163405878
0.0686283469281004
0.0690542350375497
0.0693757060619241
0.069596049948692
0.0697190481226723
0.0697488955270791
0.0696901207869496
0.0695475077384366
0.0693260202059202
0.069030730714824
0.0686667556393246
0.0682391945418732
0.0677530724965628
0.0672132905893724
0.0666245827417433
0.0659914798100169
0.0653182785464758
0.0646090163759061
0.0638674466160264
0.0630970019144828
0.0623007684205745
0.0614814911356316
0.0606415738097886
0.05978305789621
0.0589076216498257
0.0580165180612699
0.0571105828544958
0.0561900898956627
0.0552548410823715
0.0543038378147417
0.0533354147987119
0.0523465298128838
0.0513331044163092
0.0502887170209994
0.0492044761747027
0.048067266638669
0.0468534724523353
0.04551713477726
0.0440085788265562
0.042670124494017
0.0424117579857906
0.0437243208810444
0.0464691187767635
0.0505117365220934
0.0558069673914366
0.0623877768995979
0.0702128418113202
0.0791100824322491
0.0888562219137854
0.0992583237797199
0.110144775552623
0.121497521458959
0.133572190792569
0.146796821547869
0.161710658831837
0.178920060305376
0.199097522139525
0.222502836510265
0.248683869688166
0.276535694507801
0.303678369442406
0.327265199269991
0.345719227070973
0.361792664151234
0.374242319766252
0.3869130756784
0.391707480089395
0.348650689963856
0.336640487348214
0.329707852646648
0.419533731274504
0.363768414879091
0.100121919102441
0.0110211143145883
0.00348496150070505
0.00312360064630109
0.00298204652948996
0.00292642331705185
0.00309612701168956
0.00351149309945018
0.0041405602719744
0.0049281664286778
0.00578310550756084
0.00662747036182932
0.00743557548319652
0.00823051071586709
0.00905690285292169
0.00996882179610692
0.0110209242800997
0.012266598908874
0.0137544172914305
0.0155169389737973
0.0175659585255101
0.0198908214366779
0.0224256363285171
0.0250308211045712
0.0276178865838889
0.0301529148820648
0.032624831258619
0.0350254299348494
0.0373555405151306
0.0396147326487449
0.0418037038877444
0.0439218659752471
0.0459681120167541
0.0479403896529819
0.0498358579935347
0.0516507556993987
0.0533802264151624
0.0550181234722156
0.0565595239627243
0.0580009287596077
0.0593403100352759
0.0605767871461528
0.0617101666474901
0.0627398428073004
0.0636639732414567
0.0644819647946194
0.0651938569224925
0.0658003366560583
0.066302760232473
0.0667031267335766
0.0670040350153458
0.0672086264762641
0.067320516432355
0.0673437199996652
0.0672825754507362
0.0671416685502908
0.0669257596258185
0.0666397142621922
0.0662884405260706
0.0658768302178464
0.0654097030279877
0.0648917586324331
0.0643275351971456
0.0637213748853616
0.0630773945617644
0.0623994625285884
0.0616911749150182
0.0609558207134053
0.0601963567791174
0.0594154140015489
0.0586153009007998
0.0577979875676702
0.0569651081041881
0.0561179108214776
0.0552572710241091
0.0543835878894214
0.0534968729051616
0.0525964400685325
0.0516810729455722
0.0507484636428606
0.0497955174449251
0.0488173101805519
0.0478069655309137
0.0467541669834665
0.0456397754846867
0.0444272288649803
0.0430838979678515
0.0418815405934187
0.0415918597699926
0.0427251759705953
0.0451952003778117
0.0488836455321506
0.0537364484928535
0.0597607667677542
0.0669013034589534
0.0749996643946528
0.0838551333809502
0.0932969258113913
0.10318742682762
0.11353994965277
0.124587630633169
0.136694169162995
0.150316789444695
0.165977010303442
0.184242334624917
0.205317525306941
0.228833714500699
0.253820843187121
0.278102378429202
0.298878869565152
0.314409557737233
0.327172213869348
0.338109790761156
0.34983457491498
0.353887791903056
0.318457962310293
0.308752995816538
0.300733392648855
0.383100284807077
0.388187940452554
0.144700563988687
0.0176768706719485
0.0037611540854415
0.0029836592689355
0.00291190398403644
0.00291362312718166
0.00311473248456975
0.00354107813455502
0.00415739286334362
0.00490393408934303
0.00570003101895181
0.00648673762913209
0.00725311806942263
0.00802670962652389
0.00885160252365508
0.00977850030749036
0.0108569077667272
0.0121330524385896
0.0136470872020173
0.0154250629474699
0.0174762807074928
0.0197881793687843
0.0222881285848139
0.0248314722625426
0.0273416191425375
0.0297985638723175
0.0321928685745722
0.0345166291627218
0.0367706369225278
0.0389541386322478
0.0410677858541909
0.0431109929756242
0.0450827947289855
0.046981335090206
0.0488040238767695
0.0505474106532208
0.0522071326847495
0.0537781568632427
0.0552566237390566
0.0566396309493563
0.0579253224467362
0.0591126171789265
0.0602008336618128
0.0611889639345736
0.0620754455430187
0.0628597073798662
0.0635417702026766
0.0641222797212124
0.0646025242074757
0.0649844147628812
0.0652704466034989
0.0654636456141757
0.0655675027977426
0.065585902591425
0.0655230480395132
0.0653833866143293
0.0651715383472655
0.0648922273851478
0.0645502202223316
0.064150267849133
0.0636970508692351
0.0631951324531463
0.0626489178001056
0.0620626204280349
0.0614402340140923
0.0607855105066776
0.0601019373531183
0.0593927031800642
0.0586606741791712
0.0579084015641696
0.0571381281370542
0.0563517767848585
0.0555509552462725
0.0547369167205038
0.0539105859426961
0.0530724830366207
0.0522227671218608
0.0513610140917973
0.050486377944664
0.0495971593920971
0.048691062283107
0.04776439137521
0.0468118715492577
0.045825474465079
0.0447895519537248
0.0436749227449403
0.0424600018700901
0.0413668670766618
0.0410630430126617
0.0420556005339609
0.0443021200225231
0.047700612900759
0.0521917552617831
0.0577632245295121
0.064349421934728
0.0718014039800062
0.0799366832882972
0.088603766181042
0.0976936954601044
0.107242223600621
0.117466058378507
0.128681861865271
0.141285460609471
0.155735625486845
0.172528782951015
0.191843205320081
0.213360032041035
0.236175534572979
0.258219392316953
0.276667290708749
0.28969017293568
0.299563684304964
0.308698767422037
0.319340585227014
0.323193262133034
0.293527845495256
0.28555120523552
0.277625929776565
0.346968726751706
0.399423981797876
0.192379422450156
0.028355841016382
0.0046153705656131
0.00292064327636034
0.00285791576397028
0.0029036375234807
0.00312646043405072
0.00355737149865851
0.00416040134555448
0.0048747806873427
0.00562897637630117
0.00637729377559431
0.00711811828091444
0.00788163610895695
0.00871112472863805
0.00965444009287482
0.0107570310330725
0.0120595232752294
0.0135955119190063
0.015386338238104
0.0174389516341531
0.019737737001462
0.0222068225763315
0.0247035034954716
0.0271590473192688
0.0295601715132824
0.0318989196345749
0.0341676661025787
0.0363669769243185
0.0384958770960697
0.0405549844848257
0.0425437596228952
0.0444613941562141
0.046306235918745
0.0480759472106796
0.0497674009769286
0.0513767175507731
0.0528997775961659
0.0543333714160502
0.0556749510663262
0.0569226963237307
0.0580753089161992
0.0591317451278299
0.0600907664965011
0.0609509713950302
0.0617117748941709
0.0623731597452539
0.062935718495629
0.0634006708136051
0.0637698492588801
0.0640456641532381
0.0642310529175041
0.0643294164851259
0.0643445489122142
0.0642805632436006
0.0641418177358914
0.0639328440307017
0.0636582786463742
0.0633228013298455
0.0629310772687407
0.0624877024506863
0.0619971568696048
0.0614637643568111
0.0608916591660163
0.0602847584852534
0.0596467415783493
0.0589810274995998
0.0582907405788644
0.0575786884928102
0.0568473715337721
0.0560989917267543
0.0553354454064087
0.0545583296681579
0.053768919508413
0.0529682000177241
0.0521567788218115
0.0513349394413183
0.0505024837886603
0.0496588799936626
0.0488029419425358
0.0479330378570412
0.0470464956989613
0.0461393426359581
0.0452054400963087
0.0442319204185572
0.0431954005236748
0.0420812065410603
0.0410762331953491
0.0407686351110467
0.0416492324902682
0.0437108907328597
0.0468675368520013
0.0510570662949703
0.0562522684113593
0.0623797342040142
0.0692973499469549
0.0768378789312119
0.0848673365232719
0.0933016106928087
0.102192967355224
0.1117449344017
0.122238300949228
0.134021829740476
0.147507273541716
0.163143122151428
0.181096821623296
0.20107325259275
0.222182488931833
0.242394503092599
0.258823145574723
0.269629823693077
0.277016652597442
0.284334203076747
0.293790412603261
0.297585226255167
0.272448719863238
0.265804231522351
0.258840821741609
0.313420381960968
0.399256379096942
0.238492366596022
0.0450583686381822
0.0064054964802618
0.00298853222153463
0.00283239103288942
0.00290707659906899
0.00314413076564627
0.00357515642703756
0.00416514439579707
0.00485381637274054
0.00557716050769206
0.00629899528577965
0.00702388910847929
0.00778366018250484
0.00862064075248421
0.00958021120839536
0.0107045326199294
0.0120297912763531
0.0135844513481578
0.0153862431030517
0.0174397610005859
0.0197262738166167
0.0221695924813836
0.0246325433340665
0.0270510785769381
0.0294143173245826
0.031715530643491
0.0339472613026207
0.0361096826814874
0.0382016279314067
0.0402236622581875
0.0421753029701046
0.0440558939892333
0.0458639795018684
0.0475974627897513
0.0492535364625291
0.0508287304738591
0.0523196412773942
0.0537234484659521
0.0550377938728547
0.0562608071945839
0.0573909710506084
0.0584269610672753
0.0593673867811267
0.0602109222575515
0.0609569410859522
0.0616053711166834
0.0621567420715166
0.0626122047568812
0.0629735215317876
0.0632430341218586
0.0634236149016651
0.0635186043353912
0.0635317409083661
0.0634670867238894
0.0633289531942926
0.0631218283701211
0.0628503075644399
0.062519031047769
0.0621326256060411
0.0616956495263188
0.0612125455340434
0.0606876004893633
0.0601249118645472
0.0595283605617856
0.058901590901221
0.0582479884514259
0.0575706445508593
0.0568723362605424
0.0561555379861553
0.0554224329458557
0.0546749093344409
0.0539145737233208
0.0531427407488223
0.0523604419226502
0.0515683585526549
0.0507668872133646
0.0499560283494139
0.0491355222192184
0.0483046212892342
0.0474622567497537
0.0466066173955827
0.04573480791568
0.0448422598120724
0.0439183533373805
0.0429442378616965
0.0419092878402921
0.0409755039528727
0.0406701456759649
0.0414607216605777
0.0433674339966621
0.0463192408524055
0.0502529975525127
0.0551300276075838
0.0608708971352299
0.0673387169959575
0.0743795278524029
0.0818757816665434
0.0897653559487566
0.0981127903007776
0.10711008769496
0.117009593564335
0.128123394213696
0.140828175280472
0.155541137188673
0.172425959195174