/*--------------------------------*- C++ -*----------------------------------*\
  =========                 |
  \\      /  F ield         | OpenFOAM: The Open Source CFD Toolbox
   \\    /   O peration     | Website:  https://openfoam.org
    \\  /    A nd           | Version:  7
     \\/     M anipulation  |
\*---------------------------------------------------------------------------*/
FoamFile
{
    version     2.0;
    format      ascii;
    class       volScalarField;
    location    "2000";
    object      k;
}
// * * * * * * * * * * * * * * * * * * * * * * * * * * * * * * * * * * * * * //

dimensions      [0 2 -2 0 0 0 0];

internalField   nonuniform List<scalar> 
15600
(
2.5188365534263e-05
2.09768471538138e-05
1.06014572443053e-05
3.25676631374694e-06
3.78894402118474e-07
7.16435424523171e-08
5.73970558695843e-08
3.81541382388247e-08
3.37822726482773e-08
3.00054635834275e-08
2.91070265840719e-08
3.17198025721688e-08
3.83881995025555e-08
5.030816301531e-08
7.14315199289774e-08
1.06812693866372e-07
1.62376076198911e-07
2.43181821134912e-07
3.55510276969311e-07
5.0400763639981e-07
6.88967765773007e-07
9.05903990915805e-07
1.15513124327581e-06
1.4243748891812e-06
1.6808669485771e-06
1.8875815797772e-06
2.04505623873958e-06
2.21042661434066e-06
2.89398190906925e-06
4.04963809721161e-06
5.21754619166993e-06
6.39157772059559e-06
7.56897040485145e-06
8.74712030783874e-06
9.92659656012379e-06
1.11089677217292e-05
1.22938506800093e-05
1.34804363325826e-05
1.46662717075515e-05
1.58481121277006e-05
1.70217576234602e-05
1.81825255003385e-05
1.93256403957804e-05
2.04469074935169e-05
2.15439456437915e-05
2.26172031478214e-05
2.36675914916484e-05
2.46847016156531e-05
2.5618608795648e-05
2.64621226447934e-05
2.72265689958697e-05
2.79067673949841e-05
2.84993902824416e-05
2.9002302117759e-05
2.94145992063995e-05
2.97365605706855e-05
2.99695538265519e-05
3.01159211581035e-05
3.01788461612874e-05
3.01622145951767e-05
3.0070475106506e-05
2.99085027536838e-05
2.96814707224862e-05
2.93947382487657e-05
2.90537321038166e-05
2.86638586151765e-05
2.82304165862644e-05
2.77585294368489e-05
2.72530720703651e-05
2.67186128040294e-05
2.61593687332358e-05
2.55791558620551e-05
2.49814192024361e-05
2.43692870244661e-05
2.37455278525053e-05
2.31125241385534e-05
2.24723084997787e-05
2.1826410694713e-05
2.11759884716628e-05
2.05214776565147e-05
1.98629284920293e-05
1.91991515124756e-05
1.85286274442607e-05
1.78473994004453e-05
1.71514891350357e-05
1.64318253265867e-05
1.56807090996805e-05
1.48794441930001e-05
1.40157356693248e-05
1.30547875992669e-05
1.19908662783478e-05
1.06909493493783e-05
9.78163907474304e-06
1.01610784576406e-05
1.08382030115958e-05
1.17982890186151e-05
1.27549827561176e-05
1.37808990556303e-05
1.48700735691044e-05
1.61452223293284e-05
1.742926086129e-05
1.86720739845033e-05
1.97627880059311e-05
2.06570902440607e-05
2.10327740427704e-05
2.10289730882369e-05
2.08664206120206e-05
2.06797050887166e-05
2.06215267783882e-05
2.09460564440834e-05
2.22911255347118e-05
2.45966896910439e-05
2.83372900106488e-05
3.4488939441186e-05
4.38903855695947e-05
5.3228806183741e-05
4.55467564299779e-05
3.40231510136283e-05
2.59768625695316e-05
2.60160266240169e-05
0.000810844885470646
0.000672171978908119
0.000349890979031375
0.000108916601543469
1.34015324725701e-05
2.51801264142213e-06
1.89948600314366e-06
1.26069932928721e-06
1.10810103515042e-06
9.82734926709515e-07
9.48438025224336e-07
1.02727498430088e-06
1.23677006235584e-06
1.61465219989271e-06
2.28569274694399e-06
3.41288182011613e-06
5.18921311059463e-06
7.7802983438081e-06
1.13905856345409e-05
1.61738525958628e-05
2.21432162449861e-05
2.91551384347547e-05
3.72111215693125e-05
4.60321550952327e-05
5.45771049444085e-05
6.15347535700844e-05
6.66830463873519e-05
7.21588968283351e-05
9.48279959552213e-05
0.000131866592742335
0.000169015293766239
0.000206086710414588
0.000243055587943349
0.00027984908512914
0.000316511716579984
0.0003530921196759
0.000389584727484406
0.000425963622548668
0.000462155913109105
0.000498064402816804
0.000533565896560805
0.000568525054220078
0.000602806724737502
0.000636296030924043
0.000668934062849377
0.000700747036696405
0.000731777514320621
0.000761771043219359
0.000789431653089473
0.000814756967554091
0.000837717828486017
0.000858176560376456
0.000876047177979602
0.000891276517706167
0.000903844972566883
0.000913764932975823
0.000921078032291499
0.000925851982039938
0.000928176964765217
0.000928161935129241
0.000925930977596411
0.000921619759854284
0.000915372205233907
0.000907337638182963
0.000897667640485293
0.000886513787581996
0.000874025300370079
0.000860347222139529
0.00084561836401893
0.000829969517880651
0.00081352229159205
0.000796387274168246
0.000778665119437003
0.000760448048094336
0.000741818320261756
0.000722847397540629
0.000703596947852749
0.000684113711505692
0.00066443395470298
0.000644571496627211
0.000624529531792733
0.00060427141466337
0.000583752569579312
0.000562848557259629
0.000541439031895062
0.000519235072816359
0.000496000153996246
0.000471133550926149
0.000444250603987198
0.000414222851380039
0.000380964006775121
0.000340955709267794
0.00031304476147582
0.000325167377039322
0.000347135537019299
0.000378656620630993
0.000409948860377245
0.000443797161608856
0.00047984447716986
0.000521996594734043
0.000563911786753506
0.000604278844209469
0.000639327289722747
0.000667517924091904
0.000678349367908596
0.000677844341696887
0.0006729952053782
0.000667811762016638
0.000667576854669837
0.000681128433968634
0.000728996491446616
0.000806243754271
0.000930041491746951
0.00112990020662989
0.00141913657247131
0.00166883612276852
0.00143625691786413
0.00110022806544312
0.000848562564235224
0.000832798629502758
0.00481506430286564
0.00414311789537327
0.00255115927799965
0.000870386538939673
0.000111078262450708
1.99958143194291e-05
1.41019630687062e-05
9.36695477531294e-06
8.19481894330988e-06
7.26443735959577e-06
6.98414484574811e-06
7.52383683996613e-06
9.0200958394478e-06
1.17473976295997e-05
1.66019559020617e-05
2.47734249079599e-05
3.76505022488197e-05
5.64015725076341e-05
8.23712814746106e-05
0.000116404933600887
0.000158230042056844
0.000206596283453117
0.00026092445862119
0.000318713820099352
0.000373999110800383
0.000418769716596274
0.000456170014298466
0.000515298952192795
0.000670475126293724
0.000884155022882348
0.00108376067555358
0.00127213660888555
0.00145187420649688
0.00162398641470954
0.00178989615463842
0.00195047909866615
0.00210632516541457
0.00225777838384806
0.00240497829068345
0.0025479294034512
0.00268653531283859
0.00282064742188817
0.00295011462814988
0.00307484861107388
0.00319493941895141
0.00331075286300802
0.00342220889133032
0.0035282421551836
0.00362586070925429
0.00371528350788367
0.00379635259556085
0.00386883898223699
0.00393261604397159
0.0039876295670754
0.00403389950770228
0.00407151661604122
0.00410063658119406
0.00412147337965838
0.00413429175745535
0.00413939954351694
0.00413714011151544
0.00412788493217548
0.00411202664681377
0.00408997288148105
0.00406213921450212
0.00402894390361233
0.00399080233460946
0.0039481223298505
0.00390129870379446
0.00385070814922808
0.00379670520494536
0.0037396167118372
0.00367974324920606
0.00361736260794314
0.0035527250588962
0.00348604977665214
0.00341752535613559
0.00334729443541583
0.00327546072695836
0.00320205457228427
0.00312705538226481
0.0030503080397185
0.00297159251974684
0.00289041276580979
0.00280620233694063
0.0027177928006811
0.00262402612220251
0.00252236220176661
0.00241071367942228
0.00228378198581719
0.0021402596673955
0.00196291843655101
0.00183306153258728
0.0018804195255985
0.00198836618299207
0.00214283519905922
0.00230584842856231
0.00248567251382041
0.00268247253817807
0.00290847077689911
0.00313796543136497
0.00336153799149799
0.00356332315926351
0.00373404033245336
0.00383264853216502
0.00387912886806791
0.00390290204873654
0.00392337418929591
0.00396423898555073
0.0040680146200192
0.00432566041352266
0.00471609361604338
0.00529271865206096
0.00612659548286238
0.00720496915639105
0.00806485022112866
0.00751718641788751
0.00646865808755499
0.00548188949896214
0.00511672697092267
0.00991922145490457
0.00893431563856013
0.00650734321886035
0.00299165548028836
0.000486122606809503
8.27150054116051e-05
5.29735439472293e-05
3.53763647414693e-05
3.09274868082188e-05
2.74528655694349e-05
2.63369407594167e-05
2.82557597806135e-05
3.3746147565817e-05
4.37673128095301e-05
6.15151571410278e-05
9.10773267398784e-05
0.000136824750160459
0.000201616470975167
0.000287822473671395
0.000395037542934683
0.000518767802998752
0.000652271960064726
0.000791876219404943
0.000930753076531031
0.00105691888241849
0.00116280684706833
0.00126204399106186
0.00140578895065231
0.00171531963074657
0.00210354890257691
0.00245268415528918
0.00277520145122502
0.00307830613576097
0.00336531513989967
0.00363960926526142
0.00390325966171779
0.00415770797022257
0.00440384688696421
0.00464216019673575
0.00487284307287326
0.00509588000785688
0.00531112789082619
0.00551839948514831
0.00571754679701562
0.00590848000057083
0.0060907897337758
0.00626351518902318
0.00642523355340236
0.00657439394455925
0.00671098378918047
0.0068347312221667
0.00694542561622823
0.00704297131067926
0.00712737237044575
0.00719873144902725
0.00725724390308527
0.00730318903067018
0.0073369203288987
0.00735885493464376
0.00736946302650026
0.00736925761807389
0.00735878464799107
0.00733861392464474
0.00730933097823752
0.00727152821180468
0.00722579790636099
0.00717272529393611
0.00711288253470708
0.00704682213197955
0.00697507070405018
0.00689812361642434
0.00681643854699362
0.00673043505632494
0.0066404980943121
0.00654697330050358
0.00645016220045152
0.0063503211486931
0.00624764442981288
0.00614226608183011
0.00603422382913312
0.00592346965916628
0.00580978472697057
0.00569282324276396
0.00557189697112122
0.0054461305874601
0.0053139064059074
0.00517340919597254
0.00502107685890668
0.00485348515093225
0.00466263616940222
0.00444403654578816
0.0041684509328613
0.00395801042235118
0.0040180923445428
0.00420050683589055
0.00446874017895364
0.00477309572300081
0.00511751815299258
0.00550362702143785
0.00594167221863179
0.00639485422808914
0.00684239323547292
0.00726033626295895
0.00763088585567524
0.00790121600446278
0.0080947690687871
0.00825493798692995
0.00841432147613469
0.00860851207054003
0.00890278609177914
0.0094239781412558
0.0101409881018108
0.0110973357829367
0.0123401192072111
0.0138230717645324
0.015020461097497
0.0142862257098489
0.0124309012023389
0.0107916465867713
0.0102699779159094
0.0135386816309708
0.0125692109541198
0.0100503175532778
0.00581658104019241
0.00144184007492997
0.000246593373988678
0.000137549852439662
9.2629717225461e-05
8.1328808380496e-05
7.24811701395499e-05
6.95083038728415e-05
7.43297809385766e-05
8.83568801864446e-05
0.000113747653608426
0.00015771833540932
0.000228232372619908
0.000331429278871085
0.00046733392015554
0.000633149979779884
0.000821158472976434
0.0010198535950235
0.00121922351257741
0.00141673670369654
0.00160665136636371
0.00177914769060751
0.00193367545828919
0.00209340737413247
0.00232453266702601
0.0027542164832316
0.00326395669449552
0.00372015521127123
0.00414129820493528
0.00453576240885759
0.00490815823734436
0.00526286203786339
0.00560263393250066
0.00592940819272351
0.00624440632023568
0.00654832652317908
0.00684149094565934
0.00712394876335813
0.0073955738187278
0.00765614994589351
0.00790540689058053
0.00814292629522181
0.00836778258735767
0.00857895999967005
0.00877536937428855
0.00895623923990119
0.00912140286405643
0.0092705959544446
0.00940366519462919
0.00952057582804925
0.0096214062901535
0.00970634517281351
0.00977568410028787
0.00982980754250861
0.00986918144203493
0.00989434104381069
0.00990587870775364
0.00990443222172113
0.00989067351762694
0.00986529838893772
0.00982901721855325
0.00978254517934664
0.00972659415208497
0.00966186504649386
0.00958904103318106
0.00950878049333228
0.00942171036880912
0.009328420139631
0.00922945523641843
0.00912531462695687
0.00901645368961742
0.00890328042554161
0.0087861502950061
0.0086653639852294
0.00854115167313582
0.00841366990385686
0.00828296958705849
0.008148994248512
0.00801150734748685
0.00787010573508416
0.00772403673511674
0.00757228054624678
0.00741307572473393
0.00724429679139251
0.00706207515263666
0.00686233610065239
0.00663617827216814
0.00637669260383449
0.0060504448534027
0.00579383341956892
0.00584448852669014
0.00606833483071733
0.0064084434503576
0.00681162955274638
0.00727473963960578
0.00779925965877844
0.00839056482559997
0.00900779287763124
0.0096219614529178
0.0102050256917766
0.0107340384224746
0.0111563135532243
0.0114940376897044
0.0117959487603207
0.012102331174605
0.0124544313742873
0.0129264896981656
0.0136524292590995
0.0146061555156419
0.0158147755445506
0.0173015136684745
0.0190154691683887
0.0204612275092669
0.0198978751495677
0.0176109968263423
0.0150895176691385
0.0139999442573358
0.0163788645340656
0.0153842621954353
0.0128830086033972
0.00857906876268796
0.00302788242733855
0.000596586799823952
0.000281542160135017
0.000190434262051443
0.000168797997793297
0.000151501867250577
0.000145394877896916
0.000154835372524165
0.000182414786418865
0.000231263014975587
0.000312142800198363
0.000433782765790325
0.000598401772766429
0.000798112463918563
0.00102368276695051
0.00126343335383253
0.00150542067401439
0.00174242843378034
0.00197511023564596
0.00220008695413476
0.00241133997430244
0.00261472778671784
0.00284203094191118
0.00316814729616555
0.0037039540070793
0.00430719216888329
0.0048454040996175
0.0053422887327995
0.00580689192228314
0.00624491021938431
0.00666136990179329
0.00705950447615175
0.00744157691482183
0.00780903350521672
0.0081627243164346
0.0085030657117986
0.00883015783698391
0.00914388353035981
0.00944397748886607
0.00973002924304052
0.0100013140191245
0.0102568893326134
0.010495879996955
0.0107174835996
0.0109212231069116
0.0111068589805432
0.0112741571107809
0.0114230098813921
0.0115534327338993
0.0116655634382526
0.011759658097431
0.0118360833156783
0.0118953051238236
0.0119378764895567
0.0119644239985907
0.0119756344874812
0.0119722422341917
0.0119550166115718
0.0119247508232696
0.0118822517630189
0.011828329483767
0.0117637882392838
0.0116894182018145
0.011605988125138
0.0115142379699246
0.0114148719776804
0.0113085522583571
0.0111958920830976
0.0110774518444936
0.0109537411068087
0.010825215740588
0.0106922727910239
0.0105552474061566
0.0104143985364311
0.0102699022202737
0.0101218236268128
0.00997010629006695
0.00981451120420213
0.00965460745701836
0.00948962022603615
0.00931845647008884
0.00913931119721188
0.00894989704921391
0.0087462564357497
0.00852396509598954
0.00827382507997354
0.00798724485157987
0.00762996958309292
0.00734238861377521
0.00737730601906839
0.00762461627924296
0.0080129171643079
0.00848666196037901
0.00903620910517575
0.00966162733118731
0.0103636695293896
0.0110996523177582
0.0118349249874174
0.0125388295771509
0.0131853759447983
0.013724926998351
0.0141780605319425
0.0145953632627733
0.0150215241676697
0.0155011139187842
0.0161124374067443
0.0169884525963269
0.0181119052434929
0.0194988967889015
0.0211534945177292
0.0230206882348172
0.0246257161431241
0.0242830818226913
0.0219636042153013
0.0189028272358045
0.0171488133594826
0.0189121754939744
0.0178020207315306
0.0152880193858398
0.0110699523184647
0.00497053497942866
0.00121421510213602
0.000488222426582602
0.000325718219740857
0.000292397807189824
0.000265002370416531
0.000254561613277686
0.000269347928630594
0.000312851998127858
0.000387906862559952
0.000506095768371928
0.000673291808875745
0.000885699834667336
0.00112948237818749
0.00139293941619187
0.00166461892396805
0.00193501147314542
0.00220020045046237
0.00246296864441077
0.00272189447355089
0.0029745687101313
0.00323229743575984
0.00353328762952424
0.00395321640232797
0.00457927059009327
0.00525542657539935
0.00585889909509461
0.00641681479841718
0.00693845288758953
0.00743017803083153
0.00789734543955397
0.00834346671187286
0.00877100051107062
0.00918153636519533
0.00957602551765566
0.00995494916717631
0.0103184409940691
0.0106663804399422
0.0109984440415928
0.0113140954977616
0.0116125128850844
0.0118928532036331
0.0121543668228412
0.0123964334704472
0.0126186841479016
0.0128208535676284
0.0130027393615025
0.0131642706308935
0.0133055045114299
0.0134266275206895
0.0135279511712604
0.0136099036905847
0.0136730183126891
0.0137179199184147
0.0137453107830492
0.0137559562193021
0.0137506708121955
0.0137303051530247
0.0136957337091054
0.0136478439401658
0.0135875251347409
0.0135156586945216
0.0134331093186843
0.0133407171881727
0.0132392903179809
0.0131295974079448
0.0130123611832187
0.012888251529867
0.0127578801651944
0.0126218018349638
0.0124805122577759
0.0123344432752972
0.0121839591844676
0.0120293437828053
0.0118707911551765
0.0117083811097723
0.0115420621571337
0.0113716002679495
0.011196553678351
0.0110161468847137
0.0108292555456292
0.0106340682751691
0.0104282204279467
0.0102077597745781
0.00996807558688485
0.00969992808267499
0.00939362866355772
0.00901560440207479
0.00870553943779554
0.00872332083027246
0.00898401484940835
0.00940678671308362
0.00993390084545095
0.0105500988101563
0.0112532700344038
0.0120399972377813
0.0128664934921645
0.0136940275914043
0.0144900683607437
0.0152268511280717
0.0158584956085264
0.01640437861816
0.0169153737014892
0.0174385803539834
0.0180206786516621
0.0187419876360179
0.0197321058639968
0.0209819967204444
0.0225007346829864
0.0242772098306282
0.0262497957626079
0.0279501181242892
0.0277725313277895
0.0255517009075733
0.0222960164554614
0.0200534088340066
0.0212645606659702
0.0199998703114643
0.0174634651295409
0.0132817666251567
0.00702709504872065
0.00212563987531481
0.0007593173567497
0.000483092697761736
0.000438408910821264
0.000401955798100076
0.000386581583329711
0.000405978402658694
0.000464367678642335
0.000563315563837326
0.000713210626251796
0.000916160417402668
0.00116340001741827
0.00143795347820651
0.00172790550829041
0.00202339732341765
0.00231757142675659
0.00260907938635598
0.00290212051752221
0.00319701707114382
0.00349463052131064
0.0038105941705175
0.00418648159320763
0.00469313348176658
0.00539450705324013
0.00612988003507859
0.00678820240890702
0.00739812154472745
0.00796881841785879
0.00850699133093957
0.00901812230193351
0.00950588358079497
0.00997285383742728
0.0104207223508096
0.0108505154993791
0.0112627654342157
0.0116576319886575
0.0120349890847886
0.0123944728966059
0.0127354628569441
0.013057173102067
0.0133588479207932
0.0136398358184245
0.0138996257797221
0.0141378899262054
0.0143543613205655
0.0145488666819719
0.0147213661194753
0.0148719525519177
0.0150008540780528
0.015108429554126
0.0151951600374269
0.015261636605061
0.0153085462767976
0.0153366569584198
0.0153468022064814
0.0153398666043077
0.0153167716577892
0.0152784628659107
0.0152258981658124
0.0151600361911136
0.0150818258753186
0.0149921971449212
0.0148920526782452
0.014782260007525
0.0146636441726307
0.0145369808977987
0.0144029895372794
0.0142623266984254
0.014115586635948
0.0139632998998551
0.0138059289339384
0.0136438640094842
0.0134774114665986
0.0133067828189282
0.0131320729910718
0.0129532390895239
0.0127700572836109
0.0125820881876591
0.0123885693544434
0.012188365367613
0.0119796857278058
0.0117601440108179
0.0115258458685786
0.0112721000872557
0.0109897580935887
0.0106684589450781
0.0102760119355232
0.00994905822490221
0.00995007130034265
0.0102179432345082
0.010666341962886
0.0112355389198156
0.01190538136276
0.0126711310121782
0.0135255438493011
0.0144239577948365
0.0153246061667696
0.0161935989582636
0.0170022812720721
0.01770868854821
0.0183314234384292
0.0189208478853394
0.0195251953718505
0.0201924501086931
0.0210037912838627
0.0220845803986012
0.0234325281736726
0.0250517917980799
0.0269189001096252
0.0289637389585043
0.0307159370773895
0.0306424811827888
0.0285367353340119
0.025264367490764
0.0227285399336218
0.0234536418856202
0.0220382999598456
0.0194909353253886
0.0152934173960271
0.00907306160191358
0.00330256377982868
0.00111066681386272
0.000648663581095979
0.000589803044340744
0.000547665203563627
0.000527921292361491
0.000550959751087923
0.000622292154351922
0.000742064235393874
0.00091852711337184
0.00115007375005598
0.00142409542649411
0.00172222991648001
0.00203338461535556
0.00234961445467432
0.0026663972096
0.00298437393567878
0.00330884763892363
0.00364173231909741
0.003986672763081
0.00436229450588298
0.00481078320664298
0.00539552475625207
0.00616074157036325
0.00694669846740923
0.00765334821043951
0.0083095549645158
0.00892423081385757
0.00950418970986725
0.0100549253287722
0.0105802040101239
0.0110826836619447
0.0115641317807561
0.0120256380868984
0.012467780955947
0.0128907462849351
0.0132944080272784
0.0136783811489803
0.0140420258603224
0.0143846202685663
0.0147054819725458
0.0150040328036981
0.0152798274617015
0.0155325560746422
0.0157619617747568
0.0159678972230597
0.0161503495909606
0.0163094431837084
0.0164454424719287
0.0165587478668935
0.0166498870175901
0.0167195022703762
0.0167683359787666
0.016797214727604
0.0168070332905235
0.0167987392063219
0.0167733178847708
0.0167317789175626
0.0166751438932661
0.0166044341076127
0.0165206595363032
0.0164248090637094
0.0163178418489825
0.0162006791885177
0.0160741969863067
0.0159392188208778
0.0157965086745521
0.0156467636669632
0.0154906137432018
0.0153286209532997
0.0151612756095489
0.0149889919901308
0.0148120976235298
0.0146308213239651
0.0144452737689093
0.0142554238075119
0.0140610636000995
0.0138617658038571
0.0136567839535093
0.0134449918907038
0.0132246387903677
0.0129933559251628
0.0127473408274713
0.0124818967883744
0.0121880452384671
0.0118550533909523
0.0114524098625582
0.011112569135314
0.0110978856172388
0.0113688649186296
0.0118366951925883
0.0124399639195534
0.0131542022790562
0.0139717795747949
0.0148818733959088
0.0158390028046659
0.0167991073354353
0.0177273698111527
0.0185949284337398
0.0193637190670217
0.0200518757777363
0.0207087742922829
0.0213829065887285
0.0221229466410411
0.0230101219638014
0.024165163545249
0.0255911173799483
0.0272882768660996
0.0292229225962761
0.0313154923166403
0.0330893946473112
0.0330708914552919
0.0310634787157147
0.0278518580031521
0.0251614207081773
0.0254813840172082
0.0239385840882495
0.0213954018299548
0.017192831147189
0.0110556824277042
0.00473607380634171
0.00157632447161538
0.00082187331887377
0.000736398282720707
0.000692640229732075
0.000670239621380819
0.000696583808277432
0.00077951125606927
0.000917937652602522
0.00111743744997577
0.00137285052605077
0.00166870309637875
0.0019864192743058
0.00231621597250954
0.00265202496544204
0.00299130920743661
0.00333632617107623
0.00369332581908724
0.00406562348454639
0.00445905457825508
0.00489393909517492
0.0054111259092048
0.00606591880417782
0.00688669968794774
0.00771772837384817
0.00846845951057006
0.00916718672741318
0.00982247405195781
0.0104411072275681
0.0110285235692035
0.0115885431379771
0.0121238802194524
0.0126363698876244
0.0131271605648366
0.0135968767527358
0.014045734344863
0.0144736194819913
0.014880139661685
0.0152646852239785
0.015626596477892
0.0159652517245479
0.0162801268700566
0.0165708175198656
0.016837024831168
0.0170785073547195
0.0172951409188274
0.0174869368123004
0.017654047298256
0.0177967692502964
0.0179155402872401
0.0180109300276028
0.0180836272752489
0.0181344247904629
0.0181642028527502
0.0181739124566275
0.0181645591240508
0.0181371872470674
0.0180928656612357
0.018032674852281
0.0179576941322638
0.0178689900145833
0.0177676059953506
0.0176545535466761
0.0175308037439135
0.0173972795593325
0.017254848860291
0.0171043168958831
0.0169464182316983
0.0167818158579471
0.0166111010683625
0.0164347902503991
0.0162533205022845
0.0160670398156249
0.0158761945064029
0.0156809117918683
0.0154811769609536
0.0152768028835402
0.0150673746762618
0.0148521697000417
0.0146300864553673
0.0143994280181463
0.014157872783569
0.0139017341692903
0.0136263652972771
0.0133230077209977
0.0129807693535332
0.0125708983827547
0.0122211678799911
0.0121921153641045
0.0124634184461767
0.0129460628656487
0.0135773403990124
0.0143289425774981
0.0151901961583345
0.0161468868307204
0.0171527136720607
0.0181618905734524
0.0191390723106685
0.020055749728175
0.0208776672499579
0.0216226614526458
0.0223387867866519
0.0230741465218076
0.0238775887800335
0.0248297324536592
0.0260464704659691
0.0275350217618878
0.0292923825473715
0.0312764401665137
0.0333980151812754
0.0351721748254415
0.0351712216461505
0.0332382918002966
0.0301172422750342
0.0273603364840135
0.0273532347797563
0.0257110964359555
0.0231850174694808
0.0190244220690742
0.0129746195118239
0.00636682217456799
0.00217882919935625
0.00101583131194021
0.000876072582128861
0.000833421768119546
0.000810742601869082
0.000840585498734187
0.000934253092828299
0.0010897301276285
0.00130960690176235
0.00158547545901154
0.00189990027749077
0.00223483476316639
0.00258196490988286
0.00293694244160143
0.00329892350986853
0.00367153334931201
0.00406185745303438
0.00447437920614414
0.00491651247777391
0.00540918550922639
0.00599073422466625
0.00670875746480289
0.00757917200624342
0.00845164362216712
0.00924359953551012
0.00998229926703598
0.0106759202801467
0.0113311184311644
0.0119532305286975
0.0125461026888939
0.0131124915258547
0.0136542942264261
0.014172716742684
0.0146684318512001
0.0151416908069789
0.0155924030373126
0.0160201879348904
0.0164244864340585
0.0168046959871369
0.0171602449433312
0.017490649255156
0.0177955316432135
0.0180746031409737
0.0183276398436864
0.018554538483704
0.0187553321658901
0.0189301983809739
0.0190794633160686
0.0192035984686436
0.0193032119437689
0.0193790354308649
0.0194319084896337
0.0194627614902605
0.019472598075814
0.0194624782300497
0.0194335018686374
0.019386793684663
0.0193234897554934
0.01924472418725
0.019151616912307
0.0190452630335373
0.0189267234560069
0.0187970162801994
0.0186571089213957
0.0185079110769771
0.0183502669390517
0.0181849463698123
0.0180126435761056
0.0178339775943098
0.0176494897651145
0.0174596393819881
0.017264794635097
0.0170652197930751
0.0168610614282998
0.0166523255988414
0.0164388425061315
0.0162202154945354
0.0159957521574303
0.0157643877439316
0.015524490590138
0.0152738087420454
0.0150087893331272
0.0147248769421406
0.0144135663293216
0.0140639560631041
0.0136490159490865
0.0132917083815029
0.0132496642667784
0.013519330994216
0.0140131790228442
0.0146676293743701
0.0154509419719602
0.0163493276277887
0.0173453293770101
0.0183918156994732
0.0194417436159547
0.020459627146967
0.0214177799161279
0.0222856122614023
0.0230807135441336
0.0238495384879656
0.0246392872664919
0.0254985202822474
0.0265066701671873
0.0277746701825671
0.0293130221868904
0.0311158309054152
0.033134523080395
0.0352708278806838
0.037029895194769
0.0370178830550046
0.0351365971495609
0.0321142397540146
0.0293455632479784
0.0290784347384377
0.0273636542806413
0.0248657958132675
0.0208004561767204
0.0148378079281312
0.00811589745425889
0.00295140912308468
0.00125487619029331
0.00101216874605962
0.000969795583950459
0.000949365134857699
0.000983144132417743
0.00108682220776093
0.00125787770495039
0.00149585964430707
0.00178955037153121
0.00212029587396467
0.00247097778347423
0.00283473660653707
0.0032087642673918
0.00359367829941087
0.00399429046156446
0.00441841815887192
0.00487146021988456
0.00536184409950077
0.00591028458028255
0.00655199989470907
0.00732766116465047
0.00824341266706265
0.0091548708202196
0.00998609382095147
0.0107630317653307
0.0114934515117412
0.0121838008918196
0.0128392835083809
0.0134637495317239
0.0140599878846917
0.014629954623296
0.0151749135625201
0.0156955888052577
0.0161922727382761
0.0166649073764728
0.0171131409601795
0.0175364715041993
0.0179343482921604
0.0183062410195365
0.0186516957639514
0.0189703548608453
0.0192619399633258
0.019526245252964
0.0197631865784584
0.0199728170326445
0.0201553371600553
0.0203111000577353
0.0204406085624654
0.0205445066613343
0.0206235663092367
0.0206786712674511
0.0207107994454916
0.0207210046455041
0.0207103988926246
0.0206801352749601
0.0206313920616125
0.0205653587084027
0.0204832219646631
0.020386153104214
0.0202752968374232
0.0201517615862558
0.0200166106429882
0.0198708541152493
0.0197154419035832
0.0195512555992732
0.0193790988994612
0.0191996960127998
0.0190136927910106
0.0188216549278291
0.0186240637297596
0.0184213076876148
0.0182136713598842
0.0180013239307689
0.0177842891803223
0.0175624162047372
0.0173353317660939
0.0171023791559566
0.0168625400641821
0.0166142574114763
0.0163553663693289
0.0160824613863448
0.0157911099754056
0.0154730821557542
0.015117571654839
0.0146991698098837
0.0143361069822187
0.0142823997736435
0.0145490165753305
0.0150511320700822
0.0157247246069652
0.0165349841631062
0.0174649870535571
0.0184941627174785
0.0195745517712486
0.0206582690790367
0.0217100719542765
0.022703492041105
0.0236114158371821
0.024451131794844
0.0252672342191252
0.0261055843284654
0.0270140221792027
0.0280702592118854
0.0293801960664726
0.0309569602932986
0.0327922112513643
0.03483327451829
0.0369739676825901
0.0387071043912943
0.0386613890082735
0.0368121848768742
0.0338869581109953
0.0311402944910571
0.030667854554786
0.0289035474442512
0.0264443291982313
0.0225169916602081
0.0166479705320265
0.00992942168604367
0.00395137764549425
0.00156344223569064
0.00115201078602067
0.00110290775734284
0.00108688173878301
0.00112512032092281
0.00123802198357488
0.0014231507802804
0.00167719552969496
0.00198660965210139
0.00233206110534613
0.0026975252927347
0.00307750450061678
0.00347056136230083
0.00387858869207604
0.00430743994828773
0.00476556021079298
0.005259016368032
0.00579676785801339
0.00639874097890952
0.00709680451203314
0.00792556937070086
0.00888349518761616
0.0098322465029346
0.0107013941848335
0.0115154111754647
0.0122816317842758
0.0130062306607353
0.013694250250219
0.0143495246696269
0.0149748665395975
0.0155722881541462
0.0161431119098392
0.0166881163467026
0.0172076405804646
0.0177016654597243
0.0181698813298186
0.0186118433902967
0.0190270477361591
0.0194149984306399
0.0197752647361713
0.0201075046203784