/*--------------------------------*- C++ -*----------------------------------*\
  =========                 |
  \\      /  F ield         | OpenFOAM: The Open Source CFD Toolbox
   \\    /   O peration     | Website:  https://openfoam.org
    \\  /    A nd           | Version:  7
     \\/     M anipulation  |
\*---------------------------------------------------------------------------*/
FoamFile
{
    version     2.0;
    format      ascii;
    class       volScalarField;
    location    "2000";
    object      omega;
}
// * * * * * * * * * * * * * * * * * * * * * * * * * * * * * * * * * * * * * //

dimensions      [0 0 -1 0 0 0 0];

internalField   nonuniform List<scalar> 
15600
(
1974.60613735576
1972.648325243
1984.42791022013
2055.78059759582
2222.67690004102
2356.686868098
2378.42128442444
2300.00018532342
2153.97031116953
1966.45861756929
1762.78479607635
1583.64547894744
1435.67966376577
1312.2349065017
1208.29531934702
1120.03744959636
1041.43040276847
963.351277377799
885.918292649371
810.58135114486
738.629427726828
671.777660481123
614.580438156229
568.667823075621
533.493089366932
508.868650769501
494.93483283514
492.061840314983
493.651539705996
493.651534338166
493.651534338173
493.651534338186
493.651534338214
493.651534338152
493.651534338164
493.651534338193
493.651534338173
493.651534338179
493.651534338187
493.651534338166
493.651534338199
493.651534338138
493.651534338171
493.651534338152
493.651534338165
493.651534338172
493.651534338187
493.651534338193
493.6515343382
493.651534338166
493.651534338172
493.651534338165
493.6515343382
493.651534338165
493.651534338146
493.651534338186
493.65153433818
493.651534338194
493.651534338178
493.651534338193
493.6515343382
493.651534338185
493.651534338193
493.651534338201
493.65153433813
493.651534338152
493.651534338177
493.651534338139
493.651534338172
493.65153433818
493.651534338191
493.651534338182
493.65153433818
493.651534338178
493.651534338194
493.651534338178
493.651534338152
493.651534338152
493.651534338159
493.651534338193
493.651534338166
493.651534338166
493.651534338171
493.651534338213
493.651534338157
493.651534338194
493.65153433817
493.651534338157
493.651534338187
493.651534338165
493.651534338165
493.651539706002
492.061840314982
494.934832835202
508.868650769232
533.493089366357
568.667823075228
614.580438156834
671.777660481449
738.629427726959
810.581351143299
885.918292648864
963.351277377646
1041.43040276902
1120.03744959597
1208.2953193011
1312.23490651725
1435.67966381516
1583.6454790092
1762.78479592733
1966.45861764716
2153.97031128258
2300.00018510395
2378.42128451691
2356.68686814436
2222.67690004416
2055.78059756207
1984.42791022399
1972.64832524326
1974.60613735531
346.701043100402
349.417645247643
367.516795941385
366.874431996011
378.362694506663
395.470296360406
399.624217872725
387.196406391533
363.117941241036
331.850686558958
297.744055357247
267.596779386832
242.706986328827
222.142527038037
204.910522966424
190.327321276001
177.265478323551
164.225580567291
151.167285921235
138.301107568041
125.879241830418
114.372725508794
104.495015088412
96.5064233265793
90.4867957522534
86.3413672910971
84.4083774158053
86.8817033779845
88.9442378562734
88.6406374386861
88.3551763098247
88.1392084640337
87.9783326805047
87.8517770191345
87.7491438700494
87.6537859573634
87.5575599398736
87.4525513033545
87.3344580729066
87.2000388815797
87.0476564121811
86.8766494965917
86.6872509516609
86.4805374900804
86.2580726094446
86.0216183957121
85.7775520088342
85.5551207417574
85.3381101374284
85.1359368704851
84.9301948386576
84.7235946418284
84.5180585481588
84.3153711824817
84.1171492440151
83.9248254117387
83.7396449812024
83.5626656083932
83.3947624023905
83.2366360531966
83.088822325266
82.9517035745329
82.8255220244921
82.7103890065757
82.606301247421
82.5131506819599
82.4307389370232
82.3587874593109
82.2969516194938
82.2448378233806
82.2020067240833
82.168001780528
82.1423393948713
82.124505839653
82.1139765125546
82.1102262646144
82.112716856985
82.1209572747814
82.1344291534639
82.1527379513294
82.1754100445947
82.2022651317776
82.232899827609
82.2675888944766
82.3060393085184
82.3494834365036
82.3978258665467
82.4541830316226
82.5188128517245
82.5965690865511
82.7273290324179
83.0237455501683
83.0079082087224
83.13446474145
85.4079697062232
89.4041750478123
95.2078102061859
102.775195568069
112.209080654395
123.186071394316
135.059445891548
147.55008116434
160.510555308257
173.731431968251
187.363849045093
202.710029340859
220.72728462908
242.090081164344
267.590589070424
298.209935143868
332.702632020174
365.268915021167
391.435515216622
406.895351194152
407.529473164845
395.119107499322
396.29025192534
398.206549679442
386.933347571439
357.915222743534
139.742264079512
133.95253708416
131.378898045021
124.97131533098
125.229035676982
129.202567410741
130.308778717742
126.787639386013
119.171485484261
109.052798908563
98.0175933467129
88.251945817019
80.1146621840087
73.2668398632319
67.5329908179136
62.6991652449225
58.4182709332416
54.1642012161896
49.9186232520521
45.7643488191352
41.7963467915978
38.1401002426977
35.0650065377033
32.6721403653821
30.8223709382149
29.8528818857433
29.8668768331658
29.8995067476647
30.0366545848379
30.0356509705939
30.0355238180752
30.0207983295883
29.9947561753774
29.9595111825943
29.9157112812462
29.8640217269025
29.8052078588343
29.7401119101608
29.6696228985782
29.5946497944805
29.5160989528321
29.434846874948
29.3517531892962
29.2678145000391
29.1846773332003
29.1036228249796
29.0046410461504
28.8571760936787
28.7198200162301
28.5897140518605
28.4642072492096
28.3438758478639
28.2289424216127
28.1195823484402
28.0159132619604
27.9179990752143
27.825857466833
27.7394659549434
27.6587682268342
27.5836798032715
27.5140924346217
27.4498783670547
27.3908938694717
27.3369802639635
27.2879680326811
27.2436770741184
27.2039192413071
27.1684987347246
27.137215073563
27.1098675648521
27.0862530358395
27.0661777075855
27.0494453593812
27.0358508574911
27.0251895651342
27.0172591566211
27.0118503650063
27.0087794609771
27.0078428424711
27.0089043356568
27.0117745598324
27.0164356404961
27.0227293810669
27.0309231209073
27.0409304544894
27.0536937988463
27.0692951107367
27.0901718214209
27.1167458243655
27.1515879074847
27.1732610911098
27.1571404785974
27.1085701174097
27.285016410708
27.9549514650171
29.1535830807083
30.9425617070241
33.2743114481163
36.1783482724491
39.5351676040323
43.2024959748841
47.0899191265707
51.1790654792496
55.4249257360554
59.9674396421802
65.1114398350841
71.1255200993567
78.2411912167208
86.672540887416
96.6000694870419
107.396394785066
117.69840302468
125.90658818514
130.349848421761
130.11390112287
128.044063666586
130.329729011676
138.401411068989
146.924135597254
146.691732790149
80.8295355418619
76.299087138638
78.2007511075209
76.6278632315323
63.6377249749272
58.5352847168287
58.4210832396011
57.3253226280247
54.1249517717893
49.6675469625701
44.8324633167115
40.5741961279192
37.0295149673622
34.1006016808735
31.6943076454755
29.6617816660069
27.7832883031609
25.82714210995
23.8020173721404
21.7905931002409
19.9007348667048
18.2408897688551
16.9196012759124
15.9832345800631
15.4532609892487
15.4304453772253
15.7830072111409
15.9371514904613
15.6649692336312
15.3444061742193
15.1567437475339
15.0339599784644
14.9531113351234
14.8978945289408
14.8585612500437
14.8290443053465
14.8056504274098
14.7860310506316
14.7687189712785
14.7527730263889
14.7375964609698
14.7228100272829
14.708180561683
14.6934746543703
14.6773476520256
14.6508972527721
14.6136724429213
14.5667806492573
14.5231661700451
14.4811310204288
14.4401292095983
14.4002827818258
14.361608880409
14.3241263598288
14.2878464096597
14.2527720679253
14.2188993660874
14.1862180845586
14.1547128473029
14.1243641136044
14.0951487318184
14.0670406800904
14.0400114092146
14.0140293133861
13.989060694639
13.965069020845
13.9420152612711
13.9198574525708
13.898551641481
13.8780535129331
13.8583173271943
13.8393010423864
13.8209596692449
13.8032406573549
13.786088551194
13.7694453593249
13.7532457416425
13.7374319406592
13.7219318864008
13.70669963957
13.6916576927634
13.6768044341986
13.6620623410185
13.6475578196876
13.6332293818573
13.6195402347398
13.6064872485862
13.5953239090322
13.5861656604413
13.5810919716062
13.5636463568157
13.5292609362264
13.4858088071247
13.5300738768258
13.8122554546202
14.3441072509555
15.1464769791542
16.1889878534411
17.4753912705206
18.949636720803
20.5637231052028
22.2760525798332
24.0796730389078
25.9595613754811
27.9944245348049
30.2835359218726
32.922952219808
36.009772121782
39.6196501410243
43.7698845287697
48.0959162368937
52.1516829967293
55.2784887899996
56.7634787299313
56.3843859239295
55.7293960435309
58.5932969328612
65.316284492103
77.1980252227146
83.53974394748
52.2622436151059
50.1496077867893
55.0309115055729
61.0834057761749
46.1479480061425
32.1762399786416
30.8936289299591
30.7899764728302
29.3353035610455
27.0909062709653
24.6748312104302
22.5734120526031
20.8514583673077
19.4938555643
18.3935372576403
17.3960327705674
16.3391062671772
15.1489027031947
13.8923517307308
12.6788985314133
11.6109741461176
10.7537235700783
10.1348599616921
9.77277835412641
9.69199927968632
9.89703024345787
10.2356720195809
10.3650990477007
10.0586364696993
9.73615005206483
9.57569677318823
9.48979100552721
9.44632234906875
9.42716544540197
9.42207911759872
9.42511125262839
9.43271371274352
9.44268224556992
9.45364450312869
9.46471748649122
9.47532822823183
9.48508161523936
9.49361279717227
9.50014601181729
9.50166390170049
9.49722096672193
9.48774035595723
9.47471025012586
9.46202338887828
9.44892300009851
9.43532007922371
9.42129826574109
9.40690121939079
9.39217401276952
9.37715786219366
9.3618896721912
9.34640245105762
9.33072557271263
9.3148852447187
9.29890493652821
9.28280556711765
9.26660583091841
9.25032222959671
9.23396870073028
9.21755705846041
9.20109649525864
9.18459363393389
9.16805225349538
9.15147384316698
9.13485845816268
9.118204511111
9.10151130999616
9.08477534295725
9.06798679706641
9.05113213737058
9.03419452702209
9.01715099993796
8.99998074321859
8.98265348218967
8.96515129173683
8.94743803895833
8.92951874606073
8.91135727449196
8.89303478811259
8.87453068675943
8.85613635319927
8.83788630216076
8.8205683178868
8.80430384727067
8.79059659248353
8.77060378417062
8.74729985813078
8.71512507961233
8.71210140875301
8.86049040397219
9.16354870163653
9.62606543025969
10.2278782620584
10.9647149345886
11.8038991330754
12.7219270089336
13.6952566259474
14.718110246291
15.7831732398924
16.9355437067472
18.2183379250612
19.6723860079725
21.3433796700739
23.2637654230509
25.4212359432967
27.6053754053289
29.6240370116739
31.175337988627
31.9248480518577
31.7863903873089
31.5753049034434
33.5628909845791
37.6980364317035
45.9014071770764
52.0049709427077
36.1125808317743
35.4734015676827
40.4575610691864
51.3806725980843
41.5824070177482
21.2546818310493
17.909668885815
18.2319990418969
17.6442697955621
16.4944678683193
15.2629689326852
14.2149108967078
13.3800508237659
12.7568827558119
12.2130474574858
11.6074462867723
10.86087233897
10.0121813772284
9.15905256465128
8.39301941921657
7.77335708793608
7.32133913156716
7.03425256986787
6.9190834595872
6.98545953785579
7.20595820350289
7.45803202314761
7.53408510682794
7.29765527531887
7.06721789977406
6.96494025544915
6.9181312098919
6.90148583560036
6.9017618350748
6.9113779205796
6.9260601011411
6.94323902615036
6.96133960957665
6.97938184015997
6.99673939401168
7.0129993939691
7.02784450979529
7.04086663002563
7.05111877214484
7.05748943575778
7.06020836040712
7.05989600743615
7.05754382448386
7.05461385845491
7.05076367693331
7.0460137885108
7.04043402483231
7.03407590431152
7.02699054493295
7.01922589209785
7.01082653720496
7.00183406140655
6.99228727176612
6.98222253826828
6.97167408210869
6.96067408660007
6.9492528894021
6.93743894278344
6.9252585469389
6.9127360873572
6.89989367885099
6.88675112627424
6.87332573706015
6.85963269131086
6.84568556308911
6.83149645528984
6.81707738805844
6.8024380995042
6.78758328583507
6.77251413333908
6.75722889287282
6.74172107739033
6.72598485933776
6.71000841469306
6.69378757114384
6.67730816484217
6.66058379888369
6.64360698813642
6.62645109463954
6.60913812161501
6.59190568495612
6.57485282430705
6.55859718436016
6.54336415285452
6.5304099816552
6.51515406184306
6.50334694977126
6.4822915506821
6.46427712214437
6.5518826452985
6.74971197106037
7.0574051237215
7.46033907575483
7.95179975544583
8.50959357631164
9.11938573755229
9.76613596244755
10.4448986210742
11.1515491456712
11.91531919345
12.7599314656805
13.7056401382054
14.7768646643884
15.9901578726978
17.3293141915335
18.6612638045911
19.8824723848819
20.8317793456899
21.3245354210511
21.3066029071094
21.2409450190837
22.5920346272653
25.2979150478333
30.4395911847276
34.8697714629317
26.4906857923519
26.5166471021132
30.4839659873966
43.0808458380304
40.1619367721444
17.4951872455642
11.2299854826867
11.4868584311224
11.3641072532317
10.8228720770181
10.2419221221503
9.76457754897945
9.39769457119536
9.12485950720955
8.81475804452961
8.3736388964361
7.80183638407652
7.18597376177758
6.60844307931554
6.12437633853416
5.76031004293205
5.51910123672206
5.39250645576401
5.38310667125797
5.49036047598294
5.68038454297023
5.86310231928874
5.90891144418162
5.74146132349148
5.58498302951253
5.52106778823715
5.49620188741827
5.4923472885591
5.50026839769582
5.51446994723335
5.53189728010613
5.55067559043172
5.56966279676948
5.58814322619678
5.60565906464414
5.62189804394253
5.63659295946389
5.64938018127374
5.65956646760663
5.66697006676345
5.67183009432443
5.67458872529053
5.67586501851294
5.67629644211361
5.67572583020781
5.6741977628123
5.67177016662298
5.66849161420717
5.664409643766
5.65956933100885
5.65401325951444
5.64778183672419
5.64091351070765
5.63344502372097
5.62541160665174
5.61684702782723
5.60778368713363
5.59825252447678
5.58828278676516
5.5779021384932
5.56713636771567
5.55600929220933
5.54454260265736
5.53275610685737
5.52066807013842
5.50829546304561
5.4956547790232
5.48276066043545
5.46962367206504
5.45625124698707
5.44264834141064
5.4288162637841
5.4147565554137
5.40046705827677
5.38595135385274
5.37120812883916
5.3562575169544
5.34111090031422
5.32584232839585
5.31050514532594
5.29531382244105
5.28041753988464
5.26635373370183
5.25343851418453
5.24279058886592
5.23211028962675
5.22793418048212
5.21518164723668
5.19376791802859
5.24890559533604
5.38859960738057
5.61119409987367
5.90545345368595
6.26407033342137
6.67051300223246
7.11479989770653
7.58653543162065
8.08154373236382
8.59740493584359
9.15493241253331
9.76956845347059
10.4526676472031
11.2186599819772
12.0771678876527
13.0131922944681
13.9353545701978
14.7782932065378
15.4440137644896
15.8153611615818
15.8480537916329
15.8316495025959
16.7746605259645
18.6988286468114
22.1158900504632
25.198352091451
20.4624432159313
20.7449950708784
23.5876612632695
35.7578489702995
38.4209563046353
17.5200961491982
7.97340844643816
7.64397642359409
7.74008739227053
7.53929216316124
7.31963052080874
7.15548998683521
7.03400330420573
6.9252051601026
6.72216926636493
6.38203138256386
5.94844617103927
5.50811716806611
5.11716976532735
4.80623051734126
4.587355739525
4.45861953070009
4.41233292806639
4.44834216461058
4.56069769232874
4.71782222371983
4.8546861404141
4.88627538799747
4.76796922552592
4.65962506673053
4.61850204355285
4.6055510057549
4.60776171629515
4.61849921325837
4.63365077856861
4.65094898553172
4.66897135932075
4.68685494117549
4.70405383035646
4.72021720285616
4.73509758313833
4.74846831871665
4.76002501526527
4.76943205669532
4.77671644276749
4.78208685722575
4.78586169895814
4.78842907206044
4.79009872197692
4.79080079136319
4.79058080522407
4.78948652471141
4.78756064004418
4.78484482670807
4.78137904999889
4.7772016113477
4.77234942998711
4.76685822349593
4.76076268527261
4.75409659594399
4.74689280990769
4.73918326502548
4.73099884221521
4.72236913298565
4.71332245664651
4.70388558924598
4.69408362933717
4.68393984613363
4.67347582897975
4.66271171571093
4.65166645627856
4.64035832429085
4.62880400825955
4.61701680456252
4.60500721933049
4.5927836407532
4.58035160175977
4.56771674727807
4.55488253812146
4.54185724170441
4.52864747256776
4.51527781208507
4.50177249288665
4.48820722401599
4.47465482840849
4.46131670263056
4.44837535510167
4.43631900054799
4.42552613856973
4.41701668656877
4.40977325581106
4.41025075928319
4.40329236410881
4.38268009775386
4.41873668783857
4.52242971246733
4.69225366012367
4.91928113094971
5.19630441796453
5.51028146225117
5.85363601349392
6.21876598491589
6.60215809131322
7.00243401514163
7.43537947011397
7.91224567080615
8.44005832790394
9.02800987539744
9.68224800457932
10.3898827404703
11.0844517611419
11.7199994656391
12.2304142801185
12.5326341222302
12.5855109048623
12.5835016992193
13.2580022432178
14.6966662218176
17.1402549394064
19.3597178949773
16.4685336895091
16.8348752713129
18.7904912255808
29.5648713489865
35.8015345201888
19.1277257939079
6.79820712548843
5.44101755507118
5.57120412662957
5.54990132315556
5.51961993411216
5.51927562735509
5.5210644230975
5.48953824192358
5.34764037818372
5.08689787260087
4.76357403179562
4.44873634133041
4.17960624980065
3.97469486980809
3.84061272315316
3.77467326918389
3.77023676537858
3.82518161385243
3.93122906025813
4.06144936326534
4.16832569484993
4.1930388231229
4.10794691160405
4.03081004620924
4.00375369075111
3.99771493377036
4.00301292861957
4.0147032663215
4.02960790995672
4.04598366573878
4.06271511491179
4.0791278221525
4.09479114725929
4.10942692183667
4.12283482890863
4.13483289198808
4.14518179114734
4.15376982756872
4.16066351640293
4.16603510222009
4.17011434640079
4.17314881319238
4.17530261028599
4.1765483452901
4.17692625899082
4.17647566964234
4.17523314039164
4.17323454279207
4.17051477059088
4.16710782228661
4.16304704155407
4.15836525114019
4.15309485752381
4.14726788513837
4.14091590138633
4.13406995098151
4.12676036794083
4.11901652806741
4.11086679137675
4.10233823408883
4.09345648131465
4.08424554795606
4.07472791405525
4.06492467615367
4.05485578808562
4.04454039735413
4.03399620066626
4.02323797304121
4.01227796726548
4.00112656758746
3.98979186715148
3.97828203584054
3.9666040641348
3.95476920576975
3.94278921206152
3.93069198702356
3.91851043462502
3.90632021306182
3.89420645902325
3.88236102441373
3.87098689584773
3.86053593577836
3.85142507749156
3.84459302919871
3.83977634934915
3.84297326855292
3.83996427802776
3.82160885880815
3.84577945164993
3.92544979674433
4.05980604768124
4.24162626476757
4.46408287073119
4.71649130156303
4.99275260447706
5.28706245777123
5.59646704143984
5.92028165192085
6.27101268745827
6.65748857259568
7.08444138541748
7.55809130349717
8.08267592220076
8.64740699450068
9.2020483598779
9.71174219016933
10.1277876160482
10.385618504612
10.444491168652
10.4422045263437
10.9342754493027
12.0421164701543
13.8864037368094
15.5627500172555
13.6783824982833
14.0588001701058
15.4066372991111
24.3974289337388
32.8947159239301
21.1309882554429
6.98692516449437
4.23753510602788
4.23898816666584
4.30245998069652
4.36327742710653
4.44170139777535
4.50166220820476
4.5076560162405
4.40727617354364
4.20969124035127
3.96903682835707
3.74078839549437
3.55115157340757
3.4129091425226
3.33047248267197
3.30121350395787
3.31918969110742
3.38098421458552
3.47772458711571
3.58715380851433
3.67373047715709
3.69484967603465
3.63262479574166
3.57656995802199
3.55877060846001
3.55710461327517
3.56415231208196
3.57611286535799
3.59046803887845
3.60584062859215
3.62133451408659
3.63640957310734
3.65071820509132
3.66403520318179
3.67619653286747
3.68705700335106
3.69646012914245
3.70438613396292
3.71090882871492
3.71616637980792
3.72032464897727
3.72354448115964
3.72591940728389
3.72744267350549
3.72814802150858
3.72806778495338
3.72723295791872
3.72567430411796
3.72342230337241
3.72050724827601
3.71695943917197
3.71280926577858
3.70808724152128
3.70282396466127
3.69704998303426
3.6907956594166
3.68409093674558
3.67696506733206
3.66944649187648
3.66156256339026
3.65333935092621
3.64480146689048
3.63597208265354
3.62687302258958
3.61752496908785
3.60794769172125
3.59815954908347
3.58817628806707
3.57801132930961
3.56767638584012
3.55718127492935
3.54653587038482
3.53574953077709
3.52483550245502
3.51380931092498
3.50270127555347
3.49154918471081
3.48042806934938
3.46943050674874
3.45874020446771
3.44857153852245
3.43934643502035
3.43150249747075
3.42590749449131
3.42275138115494
3.42742886215055
3.42705682935941
3.41133020871386
3.42782821535228
3.4906264189096
3.5997613043666
3.7493467042585
3.93304841106736
4.1418832217212
4.37073562284015
4.61502032327886
4.87225947186952
5.14226055928717
5.43525023099327
5.75850095285758
6.11544980740243
6.5105380773692
6.94690570116538
7.41568471943957
7.87791192672346
8.30556626582712
8.65982007381114
8.88642783151764
8.94374807501254
8.93413662364451
9.29742923018642
10.1675246963056
11.6110342146771
12.9298309455615
11.6386021012765
12.0049664842734
12.9675825321234
20.1335705348544
29.9113949139837
22.7185432784418
8.10801412879238
3.70009104211111
3.40350421247913
3.49157953096728
3.59134378378195
3.70292062846307
3.78770644540641
3.81249003263387
3.74207887350934
3.59277700047105
3.41201734467309
3.24337825950812
3.10675810244349
3.0119531054111
2.96225967086771
2.95517650140256
2.98519340231467
3.04815853140276
3.1354824607249
3.22891470573274
3.30119151184397
3.32034283189939
3.27446477512475
3.23334515027319
3.22205358037495
3.22342216392711
3.23162223601672
3.24365888115423
3.25749860285834
3.27203093032367
3.28652340389154
3.30053612117207
3.31378436803478
3.32608382691854
3.3373004418178
3.34732182461317
3.35605690192476
3.36352148323419
3.36978550327762
3.3749576888923
3.37915759004017
3.38249130438523
3.38501546584558
3.38673285782663
3.38767102046615
3.38785647930808
3.38731539995026
3.38607424052158
3.38415983152026
3.38159947308964
3.37842108211343
3.37465321846415
3.37032505088601
3.36546624790942
3.36010678337939
3.35427673720057
3.34800601422821
3.34132404521567
3.33425960963152
3.32684054480807
3.31909352304208
3.3110438616595
3.3027154890736
3.29413099355239
3.28531179116931
3.27627828383173
3.26704943517167
3.25764178658912
3.24806968625757
3.23834586841854
3.22848144120652
3.21848753975779
3.20837521419196
3.19815933198063
3.18785830254073
3.17750341067123
3.16713541806379
3.15682827279894
3.14667865425259
3.13686275277398
3.12759998294228
3.11928608007685
3.11236653600952
3.10764531125765
3.10558377080616
3.11093658868236
3.11226534318474
3.09909602823044
3.11053737142646
3.16104541854752
3.25149159985242
3.37707920598635
3.53200606097299
3.70857929355184
3.90238270907292
4.10969533478739
4.32845144513013
4.55882568940411
4.80938254458922
5.08630715661166
5.39226803943747
5.73060766218192
6.10384255408394
6.50484302337563
6.90285156740019
7.2741937797837
7.58557416694801
7.78838432007591
7.83947489596773
7.81874897988773
8.08817491793855
8.78150212476465
9.93973035746083
11.0093225355734
10.0908654446761
10.4321271448349
11.1617302809579
16.677488512794
26.9125002503044
23.6958037771216
9.60229155587395
3.6755235921821
2.88362917348209
2.94494129019299
3.05642982551934
3.17790458743151
3.27096641720211
3.30524343848139
3.25666519919969
3.14338132005507
3.00575934902546
2.87881037227417
2.77857768652378
2.71304708951854
2.68479366102032
2.69139996650742
2.72767026898679
2.78913034947804
2.86786045946046
2.94885833181532
3.01072467253384
3.02883288440572
2.99511989976429
2.96506753971875
2.95864778314725
2.96232716845023
2.97143405441243
2.98356187770468
2.99704518129221
3.0109749992258
3.02474546496156
3.03799435927126
3.05048652952762
3.06207062033076
3.07263826331083
3.08210456671582
3.09042332480975
3.09762236747013
3.10376331166158
3.10893031595784
3.11320910450365
3.11667028759558
3.11934971670174
3.1212539116248
3.12240490709427
3.12282436399345
3.12253434384031
3.12155775017196
3.11991848447337
3.11764153509343
3.11475307493708
3.1112804304089
3.10725198007685
3.10269697723236
3.09764529680591
3.0921271742506
3.08617287820259
3.0798123795528
3.07307512264663
3.06598971538274
3.05858368089927
3.05088324794223
3.04291327457538
3.03469725972255
3.0262574780114
3.0176150857564
3.0087897246833
2.99979871175864
2.990657250275
2.98137897238907
2.97197605858397
2.96246066879991
2.95284529644695
2.94314623751122
2.93338357107965
2.92358896044948
2.91380489024649
2.90410388845047
2.89458441410793
2.88541545640099
2.8768170095107
2.86916108823883
2.86289192221744
2.85875511024713
2.85736793225896
2.86286265756067
2.86521677110182
2.85435557249654
2.86243036233892
2.90374308364486
2.97990461176285
3.08703070566149
3.21985434561641
3.37170001284748
3.53867807069411
3.71770670771646
3.90708457126978
4.10727128709201
4.32557295522566
4.5673611819401
4.83482908645191
5.13063455296873
5.45697869412607
5.8083231835228
6.16007065250223
6.49123979210199
6.77133420228273
6.9545399749053
6.99604795521438
6.96200167962134
7.16145717493326
7.72021850847462
8.66601305248961
9.55264188718883
8.88067751110395
9.19323150009159
9.78512166161054
13.9162542679963
23.9761815086564
24.0110325289829
11.3977133842639
4.0944428606557
2.59246726196009
2.56636502618319
2.67286565355265
2.79257709528973
2.88583128550959
2.92472299482821
2.89205957590147
2.80550189939059
2.69925461617071
2.60211917698476
2.52756766502923
2.48233314695164
2.46845051788361
2.48356041850409
2.52274938395245
2.58149855293213
2.65268564791542
2.7238946691772
2.77800089118306
2.7956600836919
2.77134857468408
2.74983915470296
2.74728454758234
2.75288181987266
2.76282492374507
2.77514936178269
2.78847653769882
2.80205422888062
2.81537734146706
2.82814576033756
2.8401646213609
2.85130988815756
2.86149555455322
2.87065771578039
2.87877983174874
2.88589128900792
2.8920439664926
2.89730183660089
2.90172564987452
2.90536233405735
2.908235078892
2.91035107824608
2.91172759413727
2.9123821860201
2.91233346257368
2.91160143534275
2.91020771705835
2.90817559574307
2.90553008182693
2.90229781831231
2.89850691276424
2.894186692485
2.88936739285297
2.88407983581975
2.87835505613277
2.87222393542781
2.86571692460812
2.85886371208301
2.85169295050755
2.84423202546217
2.83650694188437
2.82854230424936
2.82036142455365
2.81198638587966
2.80343764271747
2.79473335077442
2.78588958643986
2.77692085879177
2.76784032633583
2.75866115746089
2.74939719888447
2.74006564877512
2.73068760058537
2.72129479536831
2.7119305818709
2.70266582135496
2.69359911140361
2.68489241719104
2.67676315521375
2.66956139623968
2.66372355500276
2.65994124718751
2.6589119800603
2.66418898884459
2.66707492430022
2.65821166014638
2.66404077245922
2.69833360673373
2.76331117461121
2.85586557720873
2.97125037294421
3.1036177976589
3.24949575750195
3.40629585487945
3.5726457460365
3.74923296155086
3.94238000957021
4.15681516405001
4.39442735992811
4.65745904767355
4.94801764663235
5.26204368287826
5.5796263688138
5.88122279705361
6.1372641046839
6.30298489953259
6.33230854087607
6.28365654613424
6.43041620018918
6.8849625547496
7.6672822996236
8.41373279890913
7.91120854679713
8.19488776143615
8.70473035556455
11.7343154491935
21.1756792982591
23.7329438240532
13.2817837788091
4.81139758036033
2.49843864084626
2.30418446658279
2.39012928121567
2.50175103748738
2.59119117068544
2.63199176140851
2.61097706724481
2.54438469763254
2.46133477540454
2.38600972341512
2.3300290065498
2.29918109244168
2.29507439097439
2.31540893763758
2.35555818188365
2.41113254051915
2.47580790419505
2.53922478098639
2.58745946132237
2.60508680712931
2.58829346921495
2.57362610669942
2.57430220869759
2.58161126622175
2.59241020646215
2.60507437625427
2.61845339717183
2.63191985892351
2.64505073780504
2.65759681831025
2.66939677263253
2.68034946158499
2.69038720785685
2.69946482000242
2.70758108012923
2.71476364244212
2.72105461041714
2.72650145682063
2.73114623274347
2.73501954308109
2.73813619794254
2.74050246338594
2.74213148821393
2.74303735617667
2.7432357925658
2.74274449244908
2.74158334116927
2.73977446864231
2.73734224470479
2.73431312906216
2.73071543645216
2.72657902459533
2.72193492341468
2.71681495354091
2.71125130565113
2.70527613649507
2.69892124397794
2.69221771171587
2.68519561074617
2.67788374455817
2.67030950177745
2.66249880966346
2.65447622248273
2.64626494665795
2.63788641500434
2.6293597310512
2.62070191504572
2.61192839355994
2.60305334594331
2.59409103216325
2.58505634917494
2.57596707833319
2.56684499441716
2.5577217279578
2.54864089248744
2.53967150161601
2.53091111578662
2.52251478455719
2.51469509393153
2.50778152673133
2.5021979972824
2.49858577950439
2.49767208257043
2.50248530065988
2.50553814728777
2.49835438179271
2.50269254495101
2.53154208847091
2.58759531068625
2.66840971030233
2.76973580743483
2.88641726009995
3.01532941862913
3.15428259614712
3.3022073579906
3.45997695963617
3.63312229785561
3.82583970915477
4.0398193679649
4.27707650287496
4.5398010195408
4.82531930733103
5.11723772368596
5.39625918003002
5.62804097696316
5.77194290741199
5.7968180356456
5.7328830858881
5.84020111005312
6.21294635205487
6.86632273281895
7.50172906326354
7.11913868426197
7.37539228793271
7.83340614466781
10.0231892228896
18.5503957203428
22.9691211566517
15.0611865290753
5.79643594199885
2.6081371416151
2.13441687079715
2.17841199615876
2.27721548521497
2.36062338799388
2.4017137501753
2.38928574591799
2.33779448257961
2.27220839330303
2.21317216655744
2.17089142626596
2.15040887876574
2.15299543835141
2.17642823097251
2.21638257343289
2.26869915225067
2.32779620696501
2.38495966753664
2.42871965570624
2.44662661415292
2.43603243454135
2.42703060401155
2.43053256485256
2.43945740799684
2.45117964393267
2.46434055301926
2.47797418669612
2.49155436431283
2.50472611113274
2.51728275935182
2.52909139086849
2.54007026602105
2.55016695292432
2.55935108071764
2.56762872173766
2.57502423493356
2.58157052680033
2.58730156006887
2.59224513290645
2.59642018783379
2.59983551284316
2.60249563911179
2.60441016538542
2.60559022010457
2.60604914010758
2.60580280485922