/*--------------------------------*- C++ -*----------------------------------*\
  =========                 |
  \\      /  F ield         | OpenFOAM: The Open Source CFD Toolbox
   \\    /   O peration     | Website:  https://openfoam.org
    \\  /    A nd           | Version:  7
     \\/     M anipulation  |
\*---------------------------------------------------------------------------*/
FoamFile
{
    version     2.0;
    format      ascii;
    class       surfaceScalarField;
    location    "2000";
    object      phi;
}
// * * * * * * * * * * * * * * * * * * * * * * * * * * * * * * * * * * * * * //

dimensions      [0 3 -1 0 0 0 0];

internalField   nonuniform List<scalar> 
30950
(
4.80264558439047e-05
-6.20630462223503e-06
4.28433541707458e-05
5.18310162398348e-06
6.0313577263513e-06
3.68119797431988e-05
-1.68693994533171e-05
2.29007571179124e-05
-1.8867897494126e-05
1.99850403059127e-06
-1.24870714333892e-05
-6.38082356601418e-06
-8.705294861375e-06
-3.78177497738214e-06
-6.51559679986772e-06
-2.18969627874159e-06
-5.14279713907098e-06
-1.37280181235641e-06
-4.05162823493725e-06
-1.09116883226895e-06
-3.38772601336044e-06
-6.63901962591471e-07
-3.09968767714009e-06
-2.88037813827425e-07
-3.1614009789284e-06
6.17126906900361e-08
-3.73476600486597e-06
5.73365542439606e-07
-4.90627036803082e-06
1.17150417296876e-06
-6.69289731211183e-06
1.78662707428066e-06
-8.85111641272642e-06
2.15821871091729e-06
-1.12304194735828e-05
2.37930354298184e-06
-1.36082256862103e-05
2.37780579552743e-06
-1.56625662232789e-05
2.05434105005532e-06
-1.70739060757199e-05
1.41133980929221e-06
-1.79506871558968e-05
8.7678118227143e-07
-1.8263481577729e-05
3.12794305561029e-07
-1.77136713022592e-05
-5.49810220808532e-07
-1.63252928082508e-05
-1.38837844122145e-06
-1.41933516440835e-05
-2.13194094987297e-06
-1.2265043180294e-05
-1.92830905315671e-06
-1.92112524772779e-05
6.94620984148035e-06
-3.14459008273455e-05
1.22346479812037e-05
-4.1969055937431e-05
1.05231558789972e-05
-5.0962041660283e-05
8.99298564209643e-06
-5.86632431889493e-05
7.70120142981659e-06
-6.53590561851155e-05
6.69581268565066e-06
-7.12401208644278e-05
5.88106419628461e-06
-7.64777043518836e-05
5.23758251345539e-06
-8.11787478156561e-05
4.70104409875751e-06
-8.54232024837875e-05
4.24445447756114e-06
-8.92597853942029e-05
3.83658400667104e-06
-9.27202508008473e-05
3.46046456825491e-06
-9.58217070970483e-05
3.10145658162835e-06
-9.85721712706387e-05
2.75046342117013e-06
-0.000100973322912074
2.40115220875132e-06
-0.000103023090396886
2.04976534958916e-06
-0.000104718137460766
1.69504749173267e-06
-0.000106055432907184
1.33729452465325e-06
-0.000107032538787438
9.77107883647696e-07
-0.000107645192601107
6.12653357563898e-07
-0.000107890477801233
2.45286577187854e-07
-0.000107772219066369
-1.18259611499816e-07
-0.00010729771251839
-4.7450572888932e-07
-0.000106476491684852
-8.21220783250514e-07
-0.000105321957081914
-1.15453326349139e-06
-0.000103850416194762
-1.47154059722325e-06
-0.000102080692181626
-1.769723350798e-06
-0.000100033786983641
-2.04690455407209e-06
-9.77324426022328e-05
-2.30134404896218e-06
-9.52007024543262e-05
-2.53173843971206e-06
-9.24634773239855e-05
-2.73722512808997e-06
-8.95461219085306e-05
-2.9173543317651e-06
-8.64740674880706e-05
-3.07205569945895e-06
-8.32724685898128e-05
-3.20159742671554e-06
-7.99659202940051e-05
-3.30654935125493e-06
-7.65782076938931e-05
-3.38771252169845e-06
-7.31320904360552e-05
-3.44611905559321e-06
-6.96491447904191e-05
-3.482946274109e-06
-6.61496335910999e-05
-3.49951197880942e-06
-6.26524244865379e-05
-3.49720963338459e-06
-5.9174924227166e-05
-3.47750017005992e-06
-5.57330608931414e-05
-3.44186355045049e-06
-5.23413487850951e-05
-3.39171180004168e-06
-4.90128892613488e-05
-3.32845963090307e-06
-4.57595710541431e-05
-3.25331805796248e-06
-4.25921307077654e-05
-3.16743958890035e-06
-3.95201234280804e-05
-3.07200715518572e-06
-3.65519983104483e-05
-2.96812313331761e-06
-3.36952462922145e-05
-2.8567528771879e-06
-3.09563028978465e-05
-2.73894286413711e-06
-2.83410396596577e-05
-2.61526534663999e-06
-2.58543686666402e-05
-2.48667151039791e-06
-2.35013399654686e-05
-2.35302941920776e-06
-2.12860496291648e-05
-2.21529018079521e-06
-1.92141766723413e-05
-2.07187265517533e-06
-1.72902222195075e-05
-1.923953731817e-06
-1.5523361030985e-05
-1.76686153392196e-06
-1.3920974117439e-05
-1.6023866946822e-06
-1.25015866367061e-05
-1.41938844708988e-06
-1.12809638812349e-05
-1.22062279431704e-06
-1.02977934547582e-05
-9.83170766434544e-07
-9.58805763493313e-06
-7.09736043339626e-07
-9.22730894333404e-06
-3.60748861440244e-07
-9.30303757599994e-06
7.57284838018192e-08
-9.97581872310611e-06
6.7278110514444e-07
-1.11167487140462e-05
1.14092986905003e-06
-1.0826194082562e-05
-2.90554537367107e-07
-1.01782171054486e-05
-6.47977057679678e-07
-8.55469447619925e-06
-1.62352255295477e-06
-6.30329839550302e-06
-2.25139607488031e-06
-3.2156289641544e-06
-3.08766944238915e-06
6.77802290649359e-07
-3.89343127063181e-06
5.64971468127175e-06
-4.97191241058411e-06
1.13544226442803e-05
-5.70470800106879e-06
1.76904965976367e-05
-6.33607411687116e-06
2.43053792015308e-05
-6.61488312889975e-06
3.09152151517816e-05
-6.609835364276e-06
3.65903917968767e-05
-5.67517652058584e-06
4.15635564949696e-05
-4.97316462933394e-06
4.62337418245132e-05
-4.67018570844343e-06
5.08539329169363e-05
-4.620193639904e-06
5.60412803656952e-05
-5.1873446251136e-06
6.29275087718568e-05
-6.88622791374266e-06
7.35261970630228e-05
-1.05986880326623e-05
8.72018997123885e-05
-1.36757022393424e-05
0.000105272056066387
-1.80701561226734e-05
0.000130197584065617
-2.49255281218791e-05
0.000159667453088593
-2.94698689482957e-05
0.000175955419294948
-1.62879656790682e-05
0.00013857865273271
3.73767650769168e-05
8.62497386208215e-05
5.23289235647263e-05
4.45564218847601e-05
4.16933813609561e-05
2.73620387558967e-06
0.000167498941317112
-6.2289399030103e-06
0.000147696591329331
2.49854512580904e-05
5.60919011785239e-05
0.000128416655519728
-2.50100922410706e-05
0.000104002743299412
-4.73868369142826e-05
2.43752596978062e-05
-3.49831966133592e-05
-1.87844621542781e-05
-2.47539694997668e-05
-1.40109997795236e-05
-1.89698659691011e-05
-7.9737970442654e-06
-1.52657153241852e-05
-5.0769557627491e-06
-1.25152770186881e-05
-3.84160716741754e-06
-1.08854234908727e-05
-2.29375500172296e-06
-1.03838206837865e-05
-7.89639808465667e-07
-1.09742059134955e-05
6.52097066783134e-07
-1.3081969994146e-05
2.6811302675312e-06
-1.69308060263501e-05
5.02033992440972e-06
-2.24447843347621e-05
7.3006055312942e-06
-2.89813219578328e-05
8.69475589960021e-06
-3.60590508606635e-05
9.45703294274006e-06
-4.30961686657264e-05
9.41492316174083e-06
-4.93656798635965e-05
8.32385275538694e-06
-5.42976847156574e-05
6.34334461032165e-06
-5.80881332478837e-05
4.66722980597519e-06
-6.06486103673832e-05
2.87327131178453e-06
-6.14379101917998e-05
2.39489652627733e-07
-6.04825321352551e-05
-2.34375644865665e-06
-5.90154712587654e-05
-3.59900162508388e-06
-6.17874631129577e-05
8.43682261578973e-07
-8.35043768478819e-05
2.86631240433876e-05
-0.000115072602138832
4.3802872968711e-05
-0.000142058612928382
3.75091672970395e-05
-0.000164179366914983
3.11137395632755e-05
-0.000182696914364944
2.62187488133904e-05
-0.000198425092777197
2.24239908774688e-05
-0.000211972559477777
1.94285305623432e-05
-0.000223767085553839
1.70321079056436e-05
-0.000234092825675903
1.50267846814483e-05
-0.000243142961892224
1.32945905617397e-05
-0.00025104269709329
1.17363199826754e-05
-0.000257874012409876
1.02917793068964e-05
-0.000263688610410903
8.91605479672794e-06
-0.000268519024602038
7.58087712091552e-06
-0.000272386137470505
6.26826549218675e-06
-0.000275304669563284
4.96829605228783e-06
-0.000277287978439316
3.67835666509275e-06
-0.000278351799469812
2.4011149469395e-06
-0.000278516708252257
1.14201793944267e-06
-0.000277799880356591
-1.0417487075852e-07
-0.000276214112635533
-1.34048028995907e-06
-0.000273786794406009
-2.54557843635587e-06
-0.000270559196728867
-3.70210291735423e-06
-0.000266575180756251
-4.80523677357684e-06
-0.000261881571456286
-5.84814177918379e-06
-0.000256529046427952
-6.82406549305611e-06
-0.000250571208540127
-7.72756087404435e-06
-0.000244063845709966
-8.55426703836684e-06
-0.000237064115852052
-9.30107375315287e-06
-0.000229629785601555
-9.9660676696394e-06
-0.000221818529963323
-1.0548480804442e-05
-0.000213687297390826
-1.10485862430721e-05
-0.000205291779797269
-1.14675741046666e-05
-0.000196685940656753
-1.18074356338183e-05
-0.00018792165085709
-1.20708398024894e-05
-0.000179048383944539
-1.22609793458335e-05
-0.000170112970388889
-1.23815337062593e-05
-0.000161159435295754
-1.24364817142159e-05
-0.000152228880138162
-1.24300676059108e-05
-0.00014335942469488
-1.2366665371361e-05
-0.00013458618390401
-1.22507408823924e-05
-0.000125941311077407
-1.20867365051442e-05
-0.000117454152082
-1.18788705897327e-05
-0.000109151360044745
-1.16312517405084e-05
-0.000101057236344402
-1.13474416795307e-05
-9.31938885863451e-05
-1.10307868558338e-05
-8.55812360304168e-05
-1.06846596518665e-05
-7.82371743075166e-05
-1.03121835561251e-05
-7.11778285052484e-05
-9.9160992558095e-06
-6.44175762604169e-05
-9.49919472178689e-06
-5.79697310077541e-05
-9.06311198810432e-06
-5.18463698807673e-05
-8.61003293193377e-06
-4.6059754059754e-05
-8.13964573024181e-06
-4.0621663940033e-05
-7.65338013220971e-06
-3.55465640436605e-05
-7.14697232985898e-06
-3.08496799610555e-05
-6.62083729731094e-06
-2.65542404580612e-05
-6.06230126823385e-06
-2.26865068856302e-05
-5.47012008689823e-06
-1.92923287861445e-05
-4.81356722795418e-06
-1.64245465535792e-05
-4.08840499881526e-06
-1.41798506448467e-05
-3.22786689988931e-06
-1.26666744409154e-05
-2.22291237440618e-06
-1.20874532658387e-05
-9.39970165286625e-07
-1.26907880510034e-05
6.79063179461746e-07
-1.49146469171679e-05
2.89663996633165e-06
-1.75085355479041e-05
3.73481844410115e-06
-1.67018985532294e-05
-1.09719145528378e-06
-1.43621623503312e-05
-2.98771329758685e-06
-9.85045426228213e-06
-6.13523058434478e-06
-3.68037475227677e-06
-8.42147557102075e-06
4.34778648852926e-06
-1.11158306852611e-05
1.42764619548584e-05
-1.38221067416472e-05
2.64316313166169e-05
-1.71270817839559e-05
4.01959206205384e-05
-1.94689973317714e-05
5.52531658858761e-05
-2.13933194996543e-05
7.09892071954929e-05
-2.23509248347308e-05
8.67460353447887e-05
-2.23666631529466e-05
0.000100916977289535
-1.98461183568869e-05
0.000113598056201795
-1.76542435123212e-05
0.000125391836736165
-1.6463966527112e-05
0.000136887757543716
-1.61161163974529e-05
0.000149241792356245
-1.75413773793047e-05
0.000164800844819989
-2.24452799818941e-05
0.000187403212729105
-3.32010558094019e-05
0.000217167954193547
-4.34404434428337e-05
0.000256679261567829
-5.75814633275987e-05
0.00030984634650115
-7.80926133290593e-05
0.000375069710778138
-9.46932332660656e-05
0.000424958999049802
-6.61772534346871e-05
0.000391151930089828
7.11838322306889e-05
0.000298139262248062
0.000145341598305813
0.000200072564465668
0.000139760127376949
3.53324090411785e-05
0.000301315845402466
1.10256480146238e-05
0.000267250294291708
5.90510023376817e-05
0.000139717003779195
0.000255949936816102
-5.87173248428377e-06
0.000249591475927615
-6.66991882766944e-05
8.52027238936096e-05
-5.59889602359029e-05
-2.94946880653897e-05
-4.05081096200868e-05
-2.94918481563807e-05
-3.15461395404079e-05
-1.69357646845038e-05
-2.57964909746025e-05
-1.08266069913139e-05
-2.1694185409994e-05
-7.94391281278757e-06
-1.93670514651407e-05
-4.62088860674082e-06
-1.8949547586417e-05
-1.20714303031318e-06
-2.04370820786682e-05
2.13963084117049e-06
-2.44741361273798e-05
6.71818485424706e-06
-3.13696964892725e-05
1.19159000430585e-05
-4.08634815604154e-05
1.67943907344073e-05
-5.19307484483819e-05
1.97620224229771e-05
-6.3743554850898e-05
2.12698397706991e-05
-7.54257876258936e-05
2.10971555842452e-05
-8.60489288497881e-05
1.89469943923966e-05
-9.50534447089348e-05
1.53478604369862e-05
-0.000102721828568459
1.2335613739256e-05
-0.000108989942673408
9.14138533797507e-06
-0.000113382735171695
4.63228218797709e-06
-0.000116316854935364
5.90363351101413e-07
-0.000120630372369624
7.14515946428354e-07
-0.0001331870318845
1.34003414246259e-05
-0.000166379879056144
6.18559715069592e-05
-0.000207745300157411
8.51682938825876e-05
-0.000241510721949587
7.12745894601436e-05
-0.000267840916828429
5.7443934396245e-05
-0.000289057040748124
4.74348726868445e-05
-0.000306438963723401
3.98059137171064e-05
-0.0003208915221309
3.38810887706411e-05
-0.000332996607780002
2.91371931586116e-05
-0.000343143377534871
2.51735546826516e-05
-0.000351592285063425
2.17434980101486e-05
-0.000358519915281793
1.86639506139479e-05
-0.000364047994144261
1.58198578468219e-05
-0.000368262219758815
1.31302805122774e-05
-0.000371225119146295
1.05437762327695e-05
-0.000372985155506529
8.02830205475921e-06
-0.000373582709437916
5.56584923869021e-06
-0.000373054392295599
3.15003967224921e-06
-0.000371435135880529
7.81858218630781e-07
-0.000368765739865983
-1.52737740357177e-06
-0.000365095569495136
-3.7743453894596e-06
-0.000360474755233719
-5.96129409482067e-06
-0.00035495398450221
-8.06634944083837e-06
-0.000348587336251193
-1.00687508919594e-05
-0.000341432376593624
-1.19601964050877e-05
-0.00033354940513187
-1.37311128109931e-05
-0.000325000832348519
-1.53726381703236e-05
-0.000315850565210245
-1.68778277923258e-05
-0.000306163354475296
-1.82414775646046e-05
-0.000296004118738959
-1.94603093756475e-05
-0.000285437320061925
-2.05328658185258e-05
-0.000274526399340834
-2.14594015187708e-05
-0.000263333275772867
-2.22417094760135e-05
-0.000251917933470476
-2.28829167895884e-05
-0.000240338064141983
-2.33873045214425e-05
-0.000228648797539671
-2.37601067297335e-05
-0.00021690248220666
-2.40072946595108e-05
-0.000205148516300789
-2.41355001602237e-05
-0.000193433248796115
-2.41517494165096e-05
-0.000181799921621905
-2.40633950305749e-05
-0.000170288656431515
-2.38779307264946e-05
-0.000158936478996098
-2.36029183002414e-05
-0.000147777399428039
-2.32458161469818e-05
-0.000136842579267755
-2.28136906617146e-05
-0.000126160502618761
-2.23133284252904e-05
-0.000115757302201929
-2.17506420556678e-05
-0.000105656971569139
-2.11311172539655e-05
-9.58814208346705e-05
-2.0460210349902e-05
-8.64506711248441e-05
-1.97429326585711e-05
-7.73831009727915e-05
-1.89836696837427e-05
-6.86956417241028e-05
-1.81866538089043e-05
-6.04043009768487e-05
-1.73544534107465e-05
-5.25244629282114e-05
-1.64898711534406e-05
-4.50718453864044e-05
-1.55922635286553e-05
-3.80629940165314e-05
-1.46622314477352e-05
-3.15172229077704e-05
-1.36927433525044e-05
-2.54574486277467e-05
-1.26806113505498e-05
-1.99144914055696e-05
-1.16052586187102e-05
-1.4928185740903e-05
-1.04564256889407e-05
-1.05579144874992e-05
-9.18383883086418e-06
-6.88135930879333e-06
-7.76496019273208e-06
-4.02362546086481e-06
-6.08560088344779e-06
-2.13769935043057e-06
-4.10883857409901e-06
-1.50085418015027e-06
-1.57681542242124e-06
-2.43644553032453e-06
1.61465446864187e-06
-5.54701432476091e-06
6.00720874345308e-06
-8.5973544805005e-06
6.78515855439269e-06
-7.50033640239294e-06
-2.19420950831461e-06
-3.92754013211331e-06
-6.56050959738573e-06
2.24374126925207e-06
-1.230651196497e-05
1.06767649187946e-05
-1.68544992178938e-05
2.14171602353049e-05
-2.18562260059594e-05
3.46407563277395e-05
-2.70457028382589e-05
5.05671996920127e-05
-3.3053525154662e-05
6.86473692713842e-05
-3.75491669228162e-05
8.84314758495726e-05
-4.11774261307289e-05
0.000109302583438639
-4.32220326169457e-05
0.000130466481972799
-4.35305614834006e-05
0.000150352625814549
-3.97322621223347e-05
0.000168751888579702
-3.605350625468e-05
0.000186161800622274
-3.38738787056158e-05
0.000203253914457606
-3.32082312860433e-05
0.000221231909660396
-3.55193713651696e-05
0.000242748251237406
-4.39616212726782e-05
0.000272036506595244
-6.24893110527271e-05
0.000310146646308147
-8.15505829669786e-05
0.000359578916805776
-0.000107013733677333
0.000423463563869099
-0.000141977260549795
0.000500982487132585
-0.000172212156543258
0.000569540793750194
-0.000134735559677335
0.000566061960607961
7.46626641644224e-05
0.000486778790632221
0.000224624772605725
0.000377437828627409
0.000249101119064411
9.41997705216508e-05
0.000414022921979896
4.09084490204347e-05
0.000374303885955707
9.87700379951318e-05
0.000235514201722303
0.000394739614970142
3.83706528224138e-05
0.000446735017984841
-7.28501097449813e-05
0.000196423496163763
-7.44544525513155e-05
-2.78903443009672e-05
-5.56699802035574e-05
-4.82763180405574e-05
-4.39747720207721e-05
-2.86309697756679e-05
-3.6612279381227e-05
-1.81891030409515e-05
-3.15403183654641e-05
-1.30158740329502e-05
-2.8887097642291e-05
-7.27410877648502e-06
-2.89223857920068e-05
-1.17185400544574e-06
-3.17195844581262e-05
4.93682868732688e-06
-3.80714468212477e-05
1.30700477647841e-05
-4.82653054045631e-05
2.21097583430149e-05
-6.17429482724684e-05
3.02720337173867e-05
-7.70531959393076e-05
3.50722697725203e-05
-9.29985529213327e-05
3.72151970764527e-05
-0.000108464816704083
3.65634190903798e-05
-0.00012248781216593
3.29699901403907e-05
-0.000134668286731614
2.75283349710947e-05
-0.000145411820500698
2.30791475500194e-05
-0.000154834978273488
1.85645430567269e-05
-0.000162899178762366
1.26964826976094e-05
-0.000170685833014805
8.37701762526576e-06
-0.000181637912669743
1.16665956890188e-05
-0.000201775377294782
3.35378058316925e-05
-0.000238087719382422
9.8168313771721e-05
-0.000277813291972146
0.000124893866361839
-0.000308744913195704
0.000102206210909614
-0.000332348175899733
8.10471970755588e-05
-0.000351099252240721
6.61859490105285e-05
-0.000366238386937599
5.49450483502142e-05
-0.000378616331088701
4.62590328278798e-05
-0.000388754632510079
3.92754943758538e-05
-0.000397003683792883
3.34226061071437e-05
-0.000403595367570196
2.8335181748153e-05
-0.000408688959351647
2.37575426247448e-05
-0.000412395148340663
1.95260466689942e-05
-0.000414793683448251
1.55288156862276e-05
-0.000415944289220364
1.16943818742563e-05
-0.000415894850631902
7.97886359276196e-06
-0.000414686613613599
4.35761185511961e-06
-0.000412358483278025
8.21909422520558e-07
-0.000408953576211351
-2.62304901219605e-06
-0.000404516354860845
-5.96459843506008e-06
-0.000399092242317597
-9.19845803100956e-06
-0.000392735440570738
-1.23180956383167e-05
-0.000385501456863662
-1.53003333082272e-05
-0.000377445189325235
-1.81250183200889e-05
-0.00036862553780284
-2.07798479500543e-05
-0.000359104050484766
-2.3252599960477e-05
-0.000348944225476948
-2.55324631658309e-05
-0.00033821092162132
-2.76111315807895e-05
-0.000326969706290641
-2.94826928359353e-05
-0.000315286197993575
-3.1143817656355e-05
-0.000303225456947386
-3.25936066476175e-05
-0.000290851435520161
-3.3833422969896e-05
-0.000278226494306904
-3.48666505431709e-05
-0.000265410999422468
-3.56984118594137e-05
-0.000252462979040381
-3.63353246921853e-05
-0.00023943786136221
-3.67852245488116e-05
-0.000226388264716972
-3.70568912688384e-05
-0.000213363836082299
-3.71599290178704e-05
-0.000200411156592405
-3.71044289635824e-05
-0.000187573692774766
-3.69008589390125e-05
-0.000174891787536046
-3.65598360147392e-05
-0.000162402692171554
-3.60920136408092e-05
-0.000150140647808582
-3.55078605349221e-05
-0.000138137040038841
-3.48172983866912e-05
-0.000126420579370297
-3.40297891109613e-05
-0.000115017597781682
-3.31536236349996e-05
-0.000103952295439482
-3.21964194989158e-05
-9.32468413043172e-05
-3.11656644832642e-05
-8.29215782112085e-05
-3.00681954929431e-05
-7.29952618381261e-05
-2.89099861781364e-05
-6.34853460922662e-05
-2.76965694606608e-05
-5.44083993421679e-05
-2.64314004272588e-05
-4.57806413561897e-05
-2.51176291786268e-05
-3.76186141904398e-05
-2.37542907915249e-05
-2.99402391985007e-05
-2.23406063864543e-05
-2.27660221275422e-05
-2.08669603760549e-05
-1.61211861420405e-05
-1.93254472280464e-05
-1.00382180125141e-05
-1.76882267933432e-05
-4.56077687736749e-06
-1.59338667779252e-05
2.49627981673017e-07
-1.39942438245375e-05
4.30939415273379e-06
-1.18247263378534e-05
7.49079088441787e-06
-9.26699765253776e-06
9.63321908097276e-06
-6.25126678454962e-06
1.04532041251999e-05
-2.3968004942952e-06
9.63397411313707e-06
2.43388447186383e-06
6.55405148754355e-06
9.08713138181912e-06
3.64956605664709e-06
9.68964398762638e-06
4.78679124979009e-06
-3.33143468192992e-06
8.85636914513916e-06
-1.06300874915233e-05
1.56627190200025e-05
-1.91128618277377e-05
2.50231998533111e-05
-2.62149800440113e-05
3.68871202378961e-05
-3.37201463881369e-05
5.14676861337803e-05
-4.162626873174e-05
6.88931606813301e-05
-5.04789997030398e-05
8.87036132017293e-05
-5.73596194468297e-05
0.0001103996969063
-6.28735098567813e-05
0.000133401015087688
-6.62233508930087e-05
0.000156906568595641
-6.70361149345009e-05
0.000179549371478306
-6.23750649738707e-05
0.000200988347111039
-5.74924818889731e-05
0.000221626133270732
-5.45116649243143e-05
0.000242119092361483
-5.37011908864924e-05
0.000263568856066367
-5.69691345648965e-05
0.000288475241424653
-6.8868006520296e-05
0.00032082393909974
-9.4838008728498e-05
0.00036222863561167
-0.000122955279439429
0.000414920505870263
-0.000159705603895169
0.000481238663791646
-0.000208295418647409
0.000560734944363281
-0.000251708437182578
0.00063477717181237
-0.000208777786914457
0.00065340560259257
5.60342324149754e-05
0.000602385648984024
0.000275644728343613
0.000509993461988494
0.000341493322938207
0.000160287489948436
0.000498749961849597
7.56097415945721e-05
0.000459574277183807
0.000137945722726827
0.000326163066534842
0.000528150821774867
9.94628663396482e-05
0.000673435215563279
-6.34779323347656e-05
0.000359364300332577
-8.90486278932236e-05
-2.31964731492539e-06
-6.9992508589664e-05
-6.73324351030428e-05
-5.60877127754701e-05
-4.25357630790242e-05
-4.75800102979287e-05
-2.66968080522404e-05
-4.19746928570285e-05
-1.86211916885341e-05
-3.9397034210745e-05
-9.85176709279538e-06
-4.025474174014e-05
-3.14145846183394e-07
-4.47034153570406e-05
9.38550165847228e-06
-5.3551284634537e-05
2.19179174545417e-05
-6.68789997079615e-05
3.54374731976354e-05
-8.36600535114806e-05
4.70530876127721e-05
-0.000101973978198377
5.33861942267048e-05
-0.000120324327213722
5.55655463366144e-05
-0.000137575231634735
5.38143233232871e-05
-0.000153008930706542
4.84036894146747e-05
-0.000166584931080068
4.11043353297464e-05
-0.000178905421265928
3.53996377680812e-05
-0.00019031085196381
2.99699737222153e-05
-0.000201163544938895
2.35491756877967e-05
-0.000212877510592853
2.00909832940966e-05
-0.000228541177333462
2.73302624845513e-05
-0.000252428544766662
5.74251731313922e-05
-0.000287295638139434
0.000133035407251754
-0.000322065466491044
0.00015966369464396
-0.000348751906439784
0.000128892650989249
-0.000369395534424981
0.000101690825040534
-0.000385942157329393
8.27325718972214e-05
-0.000399338280314672
6.83411712879786e-05
-0.000410258794608806
5.71795470559093e-05
-0.000419115015358522
4.81317149918271e-05
-0.000426192452395503
4.05000432197878e-05
-0.000431681263141313
3.3823992464976e-05
-0.000435714847468817
2.77911270791719e-05
-0.000438386967538282
2.21981666320676e-05
-0.000439766592292224
1.69084404663542e-05
-0.00043990651414509
1.18343036376362e-05
-0.000438850391238911
6.92274074353424e-06
-0.000436637393789431
2.14461417604095e-06
-0.000433307453759937
-2.50803056349098e-06
-0.000428902078232701
-7.02842463313698e-06
-0.000423464037095212
-1.14026393697407e-05
-0.000417041494839801
-1.56210003232768e-05
-0.000409688963719909
-1.96706266183476e-05
-0.000401461762040528
-2.35275350582836e-05
-0.000392416138448456
-2.71706418206985e-05
-0.000382612208645239
-3.05837777344311e-05
-0.000372112749288261
-3.37520591807831e-05
-0.000360982558984478
-3.66626534279229e-05
-0.000349287823230105
-3.93058672605975e-05
-0.000337095436209193
-4.16750797867122e-05
-0.000324472325999027
-4.37669278217084e-05
-0.000311484829274452
-4.55811032136265e-05
-0.000298198129570405
-4.71201226644278e-05
-0.000284675765159297
-4.83890148537822e-05
-0.000270979218951271
-4.93949581706256e-05
-0.000257167571507754
-5.01469720153938e-05
-0.000243297234901537
-5.06555612500491e-05
-0.000229421742449127
-5.09323837215894e-05
-0.000215591586816865
-5.09900848085908e-05
-0.000201854124480168
-5.08418913643397e-05
-0.00018825353023542
-5.05014532616261e-05
-0.000174830790371191
-4.99825759321177e-05
-0.000161623738486564
-4.9299065527972e-05
-0.0001486671367536
-4.84644622937365e-05
-0.000135992824455418
-4.74916106650505e-05
-0.00012362989905531
-4.63927145223149e-05
-0.000111604997773627
-4.51785249062114e-05
-9.99425655906586e-05
-4.38588516204361e-05
-8.86649915241449e-05
-4.24432385396622e-05
-7.77928248917563e-05
-4.09403619713024e-05
-6.73450159332821e-05
-3.93577952120419e-05
-5.73392453355928e-05
-3.77023400207118e-05
-4.77922999446778e-05
-3.59783459965999e-05
-3.87207050693267e-05
-3.41892241070291e-05
-3.01412903676945e-05
-3.23337055684502e-05
-2.20724500999394e-05
-3.04094466473377e-05
-1.45350803743416e-05
-2.84043300884004e-05
-7.55512866090712e-06
-2.63053988927232e-05
-1.16549486587292e-06
-2.40778606290093e-05
4.58920561842923e-06
-2.16885672543758e-05
9.64744637568904e-06
-1.90524846767384e-05
1.39251392918077e-05
-1.61024192646158e-05
1.72973086268501e-05
-1.26391670301058e-05
1.9605209171256e-05
-8.55916735901081e-06
2.05777493727601e-05
-3.36934072681059e-06
1.99221932223523e-05
3.08944060451672e-06
1.70759116332284e-05
1.19334129656399e-05
1.44178769392689e-05
1.23476786683503e-05
1.56034300168855e-05
-4.51698775835028e-06
1.99381984692688e-05
-1.49648559526595e-05
2.71150988910825e-05
-2.62897622477476e-05
3.70143087105501e-05
-3.61141898633905e-05
4.95514281380656e-05
-4.62572658168856e-05
6.49326694335933e-05
-5.70075100276956e-05
8.32281337018072e-05
-6.8774463972084e-05
0.000104014310151156
-7.81457958965278e-05
0.000126766997363837
-8.56261970767423e-05
0.000150914854671868
-9.03712082470115e-05
0.000175658951564998
-9.17802117728431e-05
0.000199772726912758
-8.64888402934514e-05
0.000222885737347146
-8.06054923145041e-05
0.000245356103578808
-7.69820311761866e-05
0.000267826895900172
-7.6171983486481e-05
0.000291349980436996
-8.04922187480529e-05
0.000318315338137747
-9.58333641195356e-05
0.000352483535312894
-0.000129006205864842
0.000395774968891794
-0.000166246712958869
0.000450296958495931
-0.000214227593439943
0.0005178922497214
-0.000275890709938518
0.000597929795854404
-0.000331745983330983
0.000672777232330815
-0.000283625223238566
0.00070087144451239
2.79400196868235e-05
0.000668540530564246
0.000307975643702869
0.000595569263349469
0.000414464601286873
0.000222405485603529
0.000564249962421179
0.000110356142072827
0.000528095529102777
0.000174100155680058
0.000407620294757596
0.000648626053063084
0.00016976948314044
0.000911286022211316
-3.94952925083529e-05
0.000568629082203429
-9.7950495657978e-05
5.6135556132873e-05
-8.30426059678898e-05
-8.22403226275363e-05
-6.76442810050058e-05
-5.79340850702621e-05
-5.84406322606999e-05
-3.59004598991844e-05
-5.27437478152687e-05
-2.4318076468072e-05
-5.06039039567245e-05
-1.19916104057772e-05
-5.25422698281618e-05
1.62422084653066e-06
-5.87360369397986e-05
1.55792681006201e-05
-6.98186036986561e-05
3.30004845974836e-05
-8.54723391326966e-05
5.10912084005466e-05
-0.000104163566776766
6.57443153261332e-05
-0.000123724495652282
7.29471229199332e-05
-0.000142717954225553
7.45590050696101e-05
-0.000160311770216032
7.14081391777399e-05
-0.000176165229661017
6.42571489831654e-05
-0.000190513418705516
5.5452524356783e-05
-0.000204016307561941
4.89025266398336e-05
-0.000217094180182289
4.30478463184557e-05
-0.000230278416615883
3.67334121295526e-05
-0.000244957465271921
3.47700319596472e-05
-0.000263521976457811
4.58947737094618e-05
-0.000288739378011981
8.26425745957288e-05
-0.000321102221955758
0.000165398251268308
-0.000351659022292523
0.000190220494937593
-0.000375331075484459
0.000152564704275241
-0.000394075683846536
0.000120435433391999
-0.000409283573463556
9.79404615102074e-05
-0.000421660343972979
8.07179417756791e-05
-0.000431742987961123
6.72621910135576e-05
-0.000439864486562223
5.62532135160439e-05
-0.000446265291761379
4.69008484752493e-05
-0.000451107762503689
3.86664631939223e-05
-0.000454508314291581
3.11916789562818e-05
-0.000456549869443817
2.4239721720967e-05
-0.000457294629019431
1.76532000685123e-05
-0.000456791202538347
1.13308771102894e-05
-0.000455080967246568
5.21250550254734e-06
-0.000452202555831882
-7.33797372704121e-07
-0.000448195512006879
-6.51507435491997e-06
-0.000443101053490174
-1.21228832125954e-05
-0.000436963267629238
-1.75404251153662e-05
-0.000429831688706965
-2.2752579285969e-05
-0.000421760613111516
-2.7741702144868e-05
-0.00041280594355654
-3.2482204677565e-05
-0.00040302578341252
-3.69508019287496e-05
-0.000392481921033044
-4.11276401291234e-05
-0.000381238860398354
-4.49951197612727e-05
-0.000369363196042329
-4.85383177891709e-05
-0.000356922934872203
-5.17461284155313e-05
-0.000343986790801662
-5.46112238453931e-05
-0.000330623487477815
-5.71302311467641e-05
-0.000316901112918284
-5.93034777010265e-05
-0.000302886541559664
-6.11346940373557e-05
-0.000288644929763631
-6.26306265981076e-05
-0.000274239295952272
-6.3800592049327e-05
-0.000259730167186947
-6.4656100703509e-05
-0.000245175307720258
-6.52104207661265e-05
-0.000230629507039391
-6.54781843833995e-05
-0.000216144416689877
-6.54751752318348e-05
-0.000201768453686435
-6.52178543818908e-05
-0.000187546757354536
-6.47231496209352e-05
-0.000173521184994802
-6.40081483046014e-05
-0.000159730351159916
-6.30898993511934e-05
-0.000146209709894446
-6.19851035670251e-05
-0.000132991701936171
-6.07096186070347e-05
-0.000120105935195179
-5.92784812699205e-05
-0.000107579461240841
-5.77049988590317e-05
-9.54370568368244e-05
-5.60012559929924e-05
-8.37013879141385e-05
-5.41789074644958e-05
-7.23932395719527e-05
-5.22485102283549e-05
-6.1531762654778e-05
-5.02192721717551e-05
-5.11348301453524e-05
-4.80992724915646e-05
-4.12194023102095e-05
-4.58937739138604e-05
-3.18022011476922e-05
-4.36064252746832e-05
-2.29002466150076e-05
-4.12356601298372e-05
-1.45321868702025e-05