/*--------------------------------*- C++ -*----------------------------------*\
  =========                 |
  \\      /  F ield         | OpenFOAM: The Open Source CFD Toolbox
   \\    /   O peration     | Website:  https://openfoam.org
    \\  /    A nd           | Version:  7
     \\/     M anipulation  |
\*---------------------------------------------------------------------------*/
FoamFile
{
    version     2.0;
    format      ascii;
    class       volVectorField;
    location    "2000";
    object      U;
}
// * * * * * * * * * * * * * * * * * * * * * * * * * * * * * * * * * * * * * //

dimensions      [0 1 -1 0 0 0 0];

internalField   nonuniform List<vector> 
15600
(
(0.0565660856317519 -0.000163322979988192 -1.28208683499435e-21)
(0.0665070751866075 -0.00182233921402524 -2.64393958575478e-18)
(0.0366606108231909 -0.00489522353206859 0)
(-0.0140865083710036 0.00242422912407529 -2.19448111393649e-17)
(-0.0278040931583468 0.011814079379821 -2.57849909468218e-21)
(-0.0185412447050645 0.0109098174828568 -7.3643586669193e-21)
(-0.0110401413818979 0.00771804172613757 -4.23897612014256e-17)
(-0.00800313581526832 0.00613815308056152 4.33435149153526e-17)
(-0.00576275041017195 0.00468605598111709 -1.26322412618739e-14)
(-0.00440004381067702 0.00365549048076971 -1.32242252829062e-14)
(-0.00331704796255847 0.002769949653392 1.21751226438622e-20)
(-0.00280738333757091 0.00233874439942982 -2.56774009369227e-20)
(-0.00256675506391873 0.00214808800771877 2.69848466432307e-20)
(-0.00270755023755195 0.00226764626339716 -5.77269731486304e-17)
(-0.00328985732084126 0.00272675794557711 -6.01559749944238e-17)
(-0.00433444746993513 0.00352654230785944 -6.08200954937875e-20)
(-0.00568908256326844 0.00452601605299039 -6.42689362186027e-17)
(-0.00715966901309982 0.00550965281210568 1.33398459296057e-16)
(-0.00865913330344158 0.00634740856643935 -6.92046683415326e-17)
(-0.00999860779199704 0.00686078855748385 -7.25337892207187e-17)
(-0.0109472117644213 0.00688497361362867 7.57859100243343e-17)
(-0.0114890642405003 0.00643632749628453 -7.92900822514851e-17)
(-0.0117574575569504 0.00569078876028163 -7.92417438376047e-23)
(-0.0115925667512028 0.00468968965844716 8.57830648181933e-17)
(-0.0108839968021489 0.00350429427016009 0)
(-0.0097966047640934 0.00228771006766806 0)
(-0.00764879007505178 0.00104707496902906 -6.6947567814546e-15)
(-0.00868981243074464 0.000373165348689784 -6.79003323508649e-15)
(-0.0161512950398035 7.65449727762961e-05 2.13092738432818e-23)
(-0.0238341202645801 8.26387679699262e-05 6.23670413250781e-31)
(-0.0298730892666955 0.000101431982175266 0)
(-0.0352126929407306 0.00011334238965733 -7.16946470210673e-15)
(-0.0397594393517635 0.000125387676512819 -7.19565663649951e-15)
(-0.0437589003547199 0.000135171836870967 0)
(-0.0472899347330131 0.000144476094568139 0)
(-0.050454784001514 0.000152633996755525 0)
(-0.0533046260733082 0.00015998857650285 0)
(-0.0558825021556693 0.000166307972756844 -8.0162421444882e-20)
(-0.0582116263326816 0.000171605813011514 6.6124751886118e-15)
(-0.0603076551629868 0.000175764310749636 6.66636828653312e-15)
(-0.0621777280581106 0.000178716146047051 -7.93767783810401e-20)
(-0.0638246895077599 0.0001803807903219 -7.95806285879816e-20)
(-0.0652479978257021 0.000180689816094434 7.92975730352176e-20)
(-0.0664456334706611 0.000179607119360064 -7.96563956878669e-20)
(-0.0674153329354147 0.000177117921567125 7.94580034293861e-20)
(-0.068155421414805 0.000173227142137707 0)
(-0.068664473753514 0.000167910707228543 -6.90529114763316e-15)
(-0.068939080781661 0.000161165403528845 -6.97497536091394e-15)
(-0.0689784408395437 0.000153113002462614 -8.06488668207407e-20)
(-0.0687879344981227 0.000143856744895444 4.04075920494445e-20)
(-0.0683720185111552 0.000133550747878304 -4.08103110840638e-20)
(-0.0677382493941948 0.000122355607019435 8.18884874987472e-20)
(-0.0668961970281186 0.000110420840718696 -6.85143401892027e-15)
(-0.0658571371242833 9.78999455460224e-05 -6.92217095834605e-15)
(-0.0646338587794861 8.49487142360387e-05 -2.08417460119382e-20)
(-0.0632404111994292 7.17199274412752e-05 0)
(-0.0616918137885692 5.83602573165112e-05 1.23565935520164e-30)
(-0.0600037793804191 4.50070573261457e-05 -1.07307899860147e-20)
(-0.0581924341020426 3.17863930352399e-05 1.61856450172738e-20)
(-0.0562740660713469 1.88114186713342e-05 -5.43564247135057e-21)
(-0.0542648928427311 6.18158706325162e-06 0)
(-0.0521808578279521 -6.01827049841567e-06 1.11271968173185e-20)
(-0.05003746109831 -1.77168149664571e-05 -1.11830802567355e-20)
(-0.0478496106372459 -2.88574159206752e-05 1.3173442072832e-30)
(-0.0456315002236911 -3.93961333983009e-05 0)
(-0.0433965213853787 -4.93021768082547e-05 -2.31164412100307e-20)
(-0.0411571954938479 -5.85557158042081e-05 2.3244645445569e-20)
(-0.0389251237005522 -6.71480549182072e-05 0)
(-0.0367109632807075 -7.50798032980686e-05 0)
(-0.0345244401646965 -8.23585791020848e-05 0)
(-0.032374368012136 -8.90013705983068e-05 0)
(-0.030268716540436 -9.50279399045361e-05 0)
(-0.028214709980469 -0.000100464452513341 8.22110181578215e-15)
(-0.0262188413368149 -0.000105343057419399 1.65302963781972e-14)
(-0.0242868387843075 -0.000109699294717891 8.30320875100464e-15)
(-0.0224238003007139 -0.000113570034266614 -2.01666401545096e-19)
(-0.020634140171014 -0.000117000047098006 1.01474786007668e-19)
(-0.0189217989856705 -0.000120024767540523 -1.02497434622346e-19)
(-0.0172901393940064 -0.000122698801180929 1.02971649639743e-19)
(-0.0157424068034969 -0.000125048862783743 8.68894078290271e-15)
(-0.0142813002253938 -0.000127147335711328 8.65991224256505e-15)
(-0.0129101638189909 -0.000128997516051187 -1.05029309350063e-19)
(-0.0116316781388293 -0.000130710300720142 1.0588176588772e-19)
(-0.0104508136607095 -0.000132237375246608 -2.12740055031907e-19)
(-0.00937154522806338 -0.000133770078315287 1.06835018697696e-19)
(-0.00840338056508001 -0.00013516263253061 -2.15152439015771e-19)
(-0.00755508131770445 -0.000136742352257458 4.31915979215611e-19)
(-0.00684487958279507 -0.000138248351654871 -2.16703163699458e-19)
(-0.00629711244678982 -0.000140107141803075 -2.17927273041009e-19)
(-0.00593683143486828 -0.000142219367926574 4.37000981861696e-19)
(-0.00584777198426964 -0.000144435424929856 0)
(-0.00599195985542006 -0.000148217994433041 -2.67821075492424e-23)
(-0.00685711797130038 -0.000349457382276628 0)
(-0.0071181909997327 -0.000918692646640158 2.19774620829376e-19)
(-0.00674547027475271 -0.00136090999352567 -5.59910478380964e-17)
(-0.00611027878828392 -0.00165780937244481 -3.71209487423793e-22)
(-0.00487945065960034 -0.00159557365271895 -1.055333735812e-16)
(-0.0032311046895923 -0.00114072858759882 -1.02721044342733e-16)
(-0.00102721061141735 -0.000138229064899701 9.86505584741062e-17)
(0.00191817033766032 0.00157942873137281 -9.40662830363166e-17)
(0.00561174507936641 0.00405468728560756 8.93030995512778e-17)
(0.00999053609241384 0.0072030855285867 8.4913399023568e-17)
(0.0149420432047729 0.0108831314559081 0)
(0.020422619569108 0.014946086935483 0)
(0.0258964861448978 0.0189607148709043 -7.41298096724912e-17)
(0.0309714218408947 0.0227827599355628 -7.09779863855708e-17)
(0.0360268785525172 0.0267545023963167 -6.77302037600802e-17)
(0.0413074242357919 0.0310967067170296 -6.43466765911093e-17)
(0.0472630622299548 0.0361624178124763 -6.08114996613515e-17)
(0.0545374646021542 0.0424708858669975 5.69892511449921e-17)
(0.0653664716269802 0.0512399705517319 5.29713228913257e-17)
(0.0809928881799096 0.0621106512378571 -4.92503166016712e-17)
(0.101613682580625 0.0739080223326841 4.57346364196411e-17)
(0.130817021006077 0.0864720603146668 4.23366860594276e-17)
(0.169304317505777 0.0953716515330368 -3.89901582264375e-17)
(0.214530827928092 0.0909470034074616 0)
(0.210695253786704 0.0542790645955065 1.69548883223519e-17)
(0.146611322614321 0.0172275255021533 0)
(0.0751628307023754 0.00177288826938693 -2.34908664701168e-18)
(0.0471190826382717 -0.00021408356006041 0)
(0.201018007752245 -0.000685376402680185 0)
(0.21251325307269 -0.0046039336548002 -3.05823325881043e-22)
(0.143444395244397 -0.0137581704381854 -6.5023526179256e-21)
(0.00408868299029551 0.00183494296594984 2.12464577631607e-14)
(-0.062589734069972 0.0301092562755665 2.1129878669502e-14)
(-0.0489322629739369 0.0299076344731949 -6.22140623658895e-17)
(-0.0302830287615891 0.0217320494059818 5.96508934556466e-24)
(-0.022122300586331 0.017482495019985 -6.539493727926e-17)
(-0.0163536181370437 0.0135714079437575 1.92437974931582e-14)
(-0.0128081922006216 0.0107408952025926 2.00421620721254e-14)
(-0.0101061795928076 0.0083426828581977 -3.70875279170732e-20)
(-0.00888976801262276 0.00720182690520544 3.922642724571e-20)
(-0.00849673503361494 0.00679011440532373 -4.11489030122109e-20)
(-0.00918477060673453 0.00729440194067515 -8.77826534602444e-17)
(-0.0111125509432269 0.00878946846909437 1.81351665437768e-16)
(-0.0142622985208496 0.0112346157025106 -9.07504458456105e-20)
(-0.0181928135855166 0.0141996844546672 9.50845394755781e-17)
(-0.0223947085002045 0.0170678697088135 -9.74410258979864e-17)
(-0.0266122228229425 0.0194479664636243 1.94393697793247e-19)
(-0.0304108423822339 0.0208562890115115 -1.99854245965148e-19)
(-0.0333710903397493 0.0209090916794877 -1.0526134025486e-16)
(-0.0355295840194728 0.0196770846469324 1.08858556879582e-16)
(-0.0371282347185732 0.0175800836835484 1.12399582109219e-16)
(-0.0378633208381374 0.0147392382808153 -2.25088915291031e-19)
(-0.0375630010973477 0.0113463151866349 5.87353870377493e-17)
(-0.0364824914210443 0.00775140566285564 -5.99176868351246e-17)
(-0.0350061927687358 0.00437527205559331 8.85220975719454e-15)
(-0.041770911941623 0.00246315309028734 8.25548224947464e-15)
(-0.0612420381129719 0.00153036190306367 -4.94968063897495e-23)
(-0.0801858574554278 0.00132476241211351 -6.93961158440862e-31)
(-0.0948878813317752 0.00112028115985769 0)
(-0.10736818710719 0.000954813932890086 7.61416121637801e-15)
(-0.117799784323211 0.000825699392254538 7.25802542082319e-15)
(-0.126772712266271 0.000722859545400264 3.28313339980428e-19)
(-0.134537457157062 0.000641532168137279 -1.60006369709556e-19)
(-0.141332181408801 0.000574062658018637 -1.56857469678369e-19)
(-0.147287751620924 0.000516558812735943 1.53599798723032e-19)
(-0.15250410555161 0.000465258127885098 1.10037523870877e-30)
(-0.157040264228528 0.000417964113193201 -6.24193013035648e-15)
(-0.160936938984391 0.000372926223440827 -6.09928170323689e-15)
(-0.164218323910676 0.000329041362835047 0)
(-0.166900234255309 0.000285577047566327 7.23760520339653e-20)
(-0.168992846999414 0.000242119696710658 2.6315394038454e-22)
(-0.170504268779239 0.000198561301077313 -7.12648046186898e-20)
(-0.171442868171632 0.000154984783282443 -7.13058512482151e-20)
(-0.171819631872674 0.000111537875842507 1.42062297229146e-19)
(-0.171648977986354 6.78884905973721e-05 6.16570665421561e-15)
(-0.170938177947557 2.37829530254537e-05 6.1203542033793e-15)
(-0.169695577133303 -1.97975948685561e-05 7.08307112441022e-20)
(-0.167946113260119 -6.20531581287645e-05 0)
(-0.165716231991333 -0.000102804455166053 -3.57890803823367e-20)
(-0.163033447203616 -0.000141699845727077 3.57963218354518e-20)
(-0.159928012600509 -0.000178424903127533 6.02738540845896e-15)
(-0.156432206033876 -0.000212717002095329 6.05311677109553e-15)
(-0.152579895577744 -0.000244356241244723 -1.84147156453332e-20)
(-0.148406046936222 -0.000273174620963522 -9.22156039902409e-23)
(-0.143946225761831 -0.000299054842881194 -9.26210584354513e-23)
(-0.139236149750176 -0.000321929287745981 1.89653473997285e-20)
(-0.134311269767867 -0.000341776149614008 -4.82938129678048e-21)
(-0.129206413662495 -0.000358614755599231 4.87641328827813e-21)
(-0.123955474845592 -0.000372500715849115 -4.97492768001224e-21)
(-0.11859115526479 -0.000383521042578037 5.03238189294661e-21)
(-0.113144762486713 -0.000391786979237172 2.0562061199094e-20)
(-0.107646038256107 -0.000397432962714393 -2.08314275268755e-20)
(-0.10212303121713 -0.00040060794467259 0)
(-0.0966020159202312 -0.000401474340530804 0)
(-0.0911074379800887 -0.000400201353872426 0)
(-0.085661884464384 -0.000396964125381126 0)
(-0.0802860946187757 -0.000391937623316463 0)
(-0.0749990156723863 -0.0003852887501252 0)
(-0.0698178846830672 -0.000377181931677672 0)
(-0.0647583769374388 -0.000367758438429594 9.74931566449411e-20)
(-0.0598347881102369 -0.000357153038768678 -8.24302553606749e-15)
(-0.0550600817201711 -0.000345502789214149 -1.68728620400288e-14)
(-0.0504458670833028 -0.000332935080748976 -8.63785976808582e-15)
(-0.0460026321378865 -0.000319562158669649 -2.10806109596507e-19)
(-0.0417397049745134 -0.000305502573604884 -2.87399715043492e-22)
(-0.0376656280163106 -0.000290824797915172 1.09466214794865e-19)
(-0.0337880525362809 -0.0002756326830957 1.11871528216471e-19)
(-0.0301145912571325 -0.000259917603221014 -9.4359448317588e-15)
(-0.0266521759068269 -0.000243775512973517 -9.712957704794e-15)
(-0.0234093386755644 -0.000227040878907645 1.18035072987143e-19)
(-0.0203939665459993 -0.000209818484642427 0)
(-0.0176192079236385 -0.000191609002863793 2.45150637859267e-19)
(-0.0150972993630267 -0.000172552827900162 -2.48937933161353e-19)
(-0.0128533295107023 -0.000151448835949058 -2.53690990748861e-19)
(-0.0109123038290513 -0.000128494827370048 2.57491017762356e-19)
(-0.00932293277291173 -0.000101191321963254 0)
(-0.00814756404612678 -6.97053877171107e-05 0)
(-0.00746201501034549 -2.96629609024959e-05 2.70994938109427e-19)
(-0.0074565667622211 2.11439738656758e-05 -4.45592235833983e-22)
(-0.00816518369846919 8.89918616880422e-05 2.77513348674373e-19)
(-0.0103998757492166 -0.000249259755128871 0)
(-0.0108757525001423 -0.00142307674238506 7.42652451300845e-23)
(-0.00971334743832371 -0.00219381534409018 0)
(-0.00773829228293951 -0.00255594688603085 6.8753102768523e-17)
(-0.0044102994697873 -0.00199507281019683 -1.3434410116802e-16)
(-7.20000478679071e-05 -0.000421102846172692 -2.53858282589578e-19)
(0.00551868351591917 0.00252999863043251 2.4041141672102e-19)
(0.0127295792048759 0.00723231600177004 2.25623518646425e-19)
(0.021523499664293 0.0137689366444083 -1.08554352915411e-16)
(0.0318021846499175 0.021941469571436 -2.01697787546077e-19)
(0.0433582047985688 0.0314294957519501 -9.61558571203932e-17)
(0.0561384386790867 0.0418874692408065 0)
(0.0692135224872947 0.0524241996714624 0)
(0.0818047249895443 0.0627253803363659 8.41641822029768e-17)
(0.0943823735607314 0.073477431242927 8.06878451750134e-17)
(0.10742819812873 0.0852196015955584 7.70955685821411e-17)
(0.12182039736986 0.0987709275951884 3.04619588360625e-20)
(0.138821702375385 0.115311715750978 -6.86655704235077e-17)
(0.162635938420538 0.137352356265506 -1.26888384901285e-16)
(0.196454852057678 0.164068849300735 0)
(0.241608216110822 0.192584387887397 0)
(0.30413788406441 0.221382240521535 -4.69021456100666e-17)
(0.386105910605619 0.240200089528095 -4.11492022830974e-17)
(0.486171478735409 0.229739012277822 3.7008546168748e-17)
(0.521978499117207 0.152636533544746 -1.7074547676942e-17)
(0.440596845477636 0.061784655405531 0)
(0.295088277671745 0.0118352563940842 0)
(0.208199833644975 0.00044031544490858 0)
(0.359584629490065 -0.000140816435747583 0)
(0.3576794562376 -0.00618660271360007 2.3045161575723e-18)
(0.271543849257131 -0.0220376420570738 0)
(0.0669344280249027 -0.00823887187298186 -1.72110967760844e-14)
(-0.0765503658544665 0.039213981497396 -2.03943329452125e-14)
(-0.0740462627735082 0.0445521083073149 6.18740531608439e-17)
(-0.0477140109036103 0.0334114838809944 0)
(-0.0351273787948555 0.0272351317815047 8.06266074076145e-21)
(-0.026479536909809 0.0216134258739138 -6.92172328670359e-17)
(-0.021118038397143 0.0174483030682044 7.30632736525448e-17)
(-0.0171566615643497 0.0139994506248696 2.5888410893424e-23)
(-0.0154549636871381 0.0124462857430154 -4.00925485643265e-20)
(-0.0151521086888706 0.0121117178134734 0)
(-0.0165933150221801 0.0132682049481581 8.8724971525199e-17)
(-0.0200085481755735 0.0160062020482214 2.23047715841277e-21)
(-0.0252762318818663 0.0201688371928728 -8.96032943150922e-20)
(-0.0316719120536837 0.0250219050614794 9.01535755227086e-20)
(-0.0384179298618919 0.0295914399194382 0)
(-0.0450975906271822 0.0332452117711177 0)
(-0.0511420247936255 0.0353053264325448 0)
(-0.0561353832195801 0.0353293895019963 0)
(-0.0602332110043119 0.033452215892399 -9.46478441852789e-17)
(-0.063733231011572 0.0302099232515137 -9.43018862072832e-17)
(-0.0663538320369515 0.0257966927965931 1.84464527592589e-19)
(-0.0680205856331477 0.0204792480916333 -1.84470954922142e-19)
(-0.0693697700843883 0.0147902886334644 9.33249792015181e-17)
(-0.072434323533376 0.00949065700538558 4.53963568154927e-17)
(-0.0857834216484426 0.00582321250771618 1.59097724303636e-19)
(-0.111580899250495 0.00399469535116552 3.43346918905242e-23)
(-0.134792391881232 0.00340001968531263 0)
(-0.152096236104147 0.0027815481507593 0)
(-0.166118388191783 0.00232219793076513 0)
(-0.177442044108558 0.00196894364169603 0)
(-0.186842841952932 0.00169262318961976 0)
(-0.194687793257508 0.00147135986358346 0)
(-0.201278470049812 0.00128625504060826 0)
(-0.20679076601799 0.00112600989832879 0)
(-0.211354942480457 0.000981799286639981 0)
(-0.21505465876475 0.000848153645958755 4.55509220932907e-20)
(-0.217950707466347 0.000721133177280966 -4.45140321081054e-20)
(-0.22008533351206 0.000598250984910616 4.38600209496512e-20)
(-0.221490819047826 0.00047795156313726 -4.30314155168465e-20)
(-0.222192814004807 0.00035937938353123 0)
(-0.222213859747116 0.000242265284138031 0)
(-0.221574998806984 0.00012673077233312 4.16879781952365e-20)
(-0.220296654960687 1.32717295101494e-05 1.74953533292434e-22)
(-0.218407121262901 -9.82224152900297e-05 -4.07510926355627e-20)
(-0.215937114661003 -0.000207663805644199 0)
(-0.212915412547904 -0.000313526044364754 0)
(-0.209373294474093 -0.000414709892347064 0)
(-0.205344056401429 -0.000510774273955328 0)
(-0.200862886887099 -0.000601168844393736 0)
(-0.195966401989021 -0.000685372476075388 2.00157448806441e-20)
(-0.190692310231971 -0.000762969162003722 -1.99606073454777e-20)
(-0.185079023097902 -0.000833635128532576 -1.00677782335414e-20)
(-0.179165255208232 -0.000897150146043328 -5.01370356131774e-23)
(-0.172989627189405 -0.000953392362973166 -5.01128334478645e-23)
(-0.166590314219185 -0.00100233313287677 1.02177017739748e-20)
(-0.160004722328425 -0.00104402804010125 0)
(-0.153269219457725 -0.00107860632603049 0)
(-0.146418903442736 -0.00110626128052586 0)
(-0.139487415187851 -0.00112723976601893 0)
(-0.132506798040454 -0.00114183033858796 1.08661005600914e-20)
(-0.125507377416969 -0.0011503594044693 4.7477735486988e-23)
(-0.11851768197485 -0.00115317662628973 -1.11434522755167e-20)
(-0.111564399877563 -0.00115065168647435 0)
(-0.1046723590942 -0.00114316359830293 -2.31191025872775e-20)
(-0.0978645243529347 -0.00113109770394238 2.34315853826513e-20)
(-0.0911620339912741 -0.00111483497714682 -2.39438697327886e-20)
(-0.0845842673436866 -0.00109473786050254 -8.61980301889732e-23)
(-0.0781489462808562 -0.00107115605098995 -2.49359752046793e-20)
(-0.0718722879598355 -0.00104439369065638 5.05046540610706e-20)
(-0.065769190902646 -0.00101473582224348 0)
(-0.059853320353401 -0.000982468406779426 0)
(-0.0541370990116923 -0.000947855426225565 5.38075863275293e-20)
(-0.0486319534730727 -0.00091112883734223 1.52915052484228e-22)
(-0.0433482961999984 -0.000872518256914326 -5.59394942915016e-20)
(-0.0382959466534576 -0.000832162681433766 -5.72866407051934e-20)
(-0.0334840178576825 -0.000790228114079663 5.83780704253857e-20)
(-0.0289219190516549 -0.000746688487358021 -5.97960889794799e-20)
(-0.0246186414002046 -0.000701618686392171 -1.38343875845217e-22)
(-0.0205854279988398 -0.00065466134856454 6.23326038120608e-20)
(-0.0168332696916938 -0.000605745176279194 1.27746925682831e-19)
(-0.0133797720681071 -0.00055380843082449 2.62666854002637e-22)
(-0.0102422806895001 -0.00049851756347207 -1.3345792884215e-19)
(-0.00745378951049592 -0.000437281613747986 0)
(-0.00504857990300506 -0.000369327657795694 -1.40357824980034e-19)
(-0.00309002211907745 -0.000288857037349438 1.43831911959062e-19)
(-0.00165958761446766 -0.000194518286943195 1.48192045199679e-19)
(-0.000861062869538809 -7.39023933986143e-05 -1.52654084977002e-19)
(-0.000932041564145435 7.78469652899982e-05 0)
(-0.001971775811501 0.00028695672464736 0)
(-0.00478294969231757 0.000167734502674111 5.36108623132858e-18)
(-0.00528020623874447 -0.000769969788916428 4.25090292604549e-17)
(-0.00365083950304984 -0.00108842997495628 1.62202892539146e-19)
(-0.000866865622341143 -0.000864195350594908 -4.00286902326046e-17)
(0.00356215892452989 0.000530775132563973 -7.50102792874959e-22)
(0.00931474707126131 0.00321804334580793 0)
(0.0166497310312111 0.00762767547431341 0)
(0.0259894399581103 0.014154772785862 1.2724169671549e-19)
(0.0373347601649798 0.0229077688626467 -1.20259650112749e-19)
(0.0506112684242639 0.0336669671188322 1.10321202550846e-19)
(0.0656252345995188 0.04609983960025 5.5951721779703e-17)
(0.0823360652020594 0.0598099259276814 -5.39289547955759e-17)
(0.0998759226758895 0.0739762749134857 0)
(0.117386989925538 0.0883246373266223 -5.0048697558086e-20)
(0.135228793533843 0.103553534744537 4.91745602419407e-20)
(0.153919957723417 0.120286747513095 0)
(0.174433812902783 0.13943998368584 4.76011217830011e-17)
(0.198184739295582 0.162278662088837 0)
(0.229695163519207 0.191009904869434 4.242174715709e-17)
(0.273159733273871 0.224418225888255 -4.68442437228448e-21)
(0.330318777285055 0.258727000637628 4.34637654816526e-21)
(0.406744244403861 0.290473426609288 3.07403908774309e-17)
(0.503911285289282 0.30689422739412 2.63383816920745e-17)
(0.621012472677334 0.287417026436661 -4.66611860930643e-17)
(0.691149664697748 0.201042712828629 1.12340003651705e-17)
(0.648256456218777 0.0949278746613232 0)
(0.509277973550954 0.0254984494498139 1.67411472888652e-18)
(0.395756950195527 0.00386249271218897 -9.79910687760667e-22)
(0.482714133991535 0.00155599182373841 7.27393421497862e-22)
(0.467833991040782 -0.00634168485518875 -7.36268528539028e-22)
(0.386096227267644 -0.0273015423457977 6.40657054270147e-18)
(0.156628059230367 -0.0214981770495367 0)
(-0.0647485462555647 0.0391322424525117 -5.24785051104263e-17)
(-0.0927910866543615 0.0554320905475488 -6.15286096487443e-17)
(-0.0630848563389484 0.0430612711196326 0)
(-0.0468078357011532 0.0355493077825939 0)
(-0.0359776650036998 0.0288666044534092 6.96152095186908e-17)
(-0.0292388836422784 0.0238095149271538 -7.37215680732575e-17)
(-0.0244298770930167 0.0197289518007969 7.85219772815532e-17)
(-0.0225081670257328 0.018048700682965 -4.05958521225506e-20)
(-0.0225586975280001 0.018063809452026 0)
(-0.0249533218593463 0.0200993867035291 -8.79243293420621e-17)
(-0.029937912312887 0.0242122061684227 -8.81879558343334e-17)
(-0.0372048162115552 0.030049810863918 8.5149511071922e-20)
(-0.045733109407545 0.0365524551648704 -8.56164232093432e-17)
(-0.054504825466941 0.042418091980111 -8.30505722778492e-17)
(-0.0629547369180256 0.0468162519097387 8.05220180001889e-17)
(-0.070485455430017 0.0490017300594265 -7.74895311926108e-17)
(-0.0768047016234277 0.0486097995533291 0)
(-0.0822078435021482 0.0458797777542806 7.14991923193005e-17)
(-0.0870508151914788 0.0414540078581746 1.3436222139501e-19)
(-0.0912387021457553 0.0356509165908955 -6.64260666836985e-17)
(-0.0950116443537661 0.0288385665752283 -3.21753974191939e-17)
(-0.0994293533827477 0.0216524230992672 -3.1747775147962e-17)
(-0.106888807999511 0.0148485493943502 -1.49095744669345e-17)
(-0.12353488612347 0.00946267294774168 3.32306188349034e-18)
(-0.148512701572172 0.0066681772355166 -2.20511311992338e-23)
(-0.169227720156043 0.00552055174388861 -8.13524798478538e-20)
(-0.184363171971832 0.00440733709455757 -7.50793608917473e-20)
(-0.196419796850694 0.00361679943949504 0)
(-0.206025012086395 0.00301707644669585 0)
(-0.213878402116477 0.00255298701561003 -6.30244557521396e-20)
(-0.220306029570107 0.00218067801441437 6.0188038131153e-20)
(-0.225569320587155 0.00186916916533828 -5.79410359100736e-20)
(-0.229820890798023 0.0015989676182283 5.57898069236469e-20)
(-0.2331736152573 0.00135610732358678 0)
(-0.235700933412022 0.00113171933157061 0)
(-0.237456930548517 0.000919670261886728 0)
(-0.23848017977774 0.00071605240247699 0)
(-0.238801033950598 0.000518450461076364 2.44819348047635e-20)
(-0.238444449318551 0.000325500220747016 -2.39293897309502e-20)
(-0.237433014336604 0.000136694994423289 -2.36096807143444e-20)
(-0.235788796291852 -4.77806130905134e-05 4.63557144226214e-20)
(-0.233539329457435 -0.000227079607649906 -2.27637182324663e-20)
(-0.230708201429389 -0.00040092025540921 0)
(-0.22732408536385 -0.000569216729876984 0)
(-0.223420474667221 -0.00073059809825222 0)
(-0.219027556223526 -0.000883746438361113 0)
(-0.214178271427409 -0.00102800875173631 -1.08288288747818e-20)
(-0.208907362448035 -0.00116269842000166 -2.4170739199853e-15)
(-0.203250840527007 -0.00128719506399228 -2.41948343811358e-15)
(-0.197245697267806 -0.00140101756244471 -1.06647144655788e-20)
(-0.190929523639779 -0.00150381524272681 -1.07163343128752e-20)
(-0.184340131758749 -0.0015953796360931 1.06778404269974e-20)
(-0.1775151808673 -0.00167563627693087 0)
(-0.170491846528034 -0.00174463595901821 0)
(-0.163306516867887 -0.00180254162999835 0)
(-0.155994540692629 -0.00184961304481216 0)
(-0.148590010676129 -0.00188619339681157 0)
(-0.141125588046867 -0.001912694245775 0)
(-0.133632372631098 -0.0019295801486906 0)
(-0.12613979087374 -0.00193736243338672 0)
(-0.118675523210603 -0.00193658016781775 0)
(-0.111265465075437 -0.00192779470886999 0)
(-0.103933712716031 -0.00191157639003081 -1.17872460424847e-20)
(-0.0967025634747796 -0.00188849931151302 2.69520281244324e-15)
(-0.0895925542796317 -0.00185912776968736 2.72287127263396e-15)
(-0.0826225231716534 -0.00182399706406163 -1.22699875934156e-20)
(-0.0758097080994374 -0.00178361862991004 2.50172044719588e-20)
(-0.0691698849624919 -0.00173843900971924 -2.53431928731637e-20)
(-0.0627175435935809 -0.00168887038506599 2.58546567214507e-20)
(-0.0564660055689568 -0.00163532074500535 -2.62221022188183e-20)
(-0.0504274266855718 -0.00157816359710791 0)
(-0.0446130342344571 -0.00151772523785539 2.7251915859195e-20)
(-0.0390331307657784 -0.00145431385570051 -2.76813034686665e-20)
(-0.0336975095370189 -0.00138811882819601 0)
(-0.0286153524068576 -0.00131932763035066 0)
(-0.0237962317989129 -0.00124788796583169 0)
(-0.0192494347086406 -0.00117379255829522 0)
(-0.0149865765826817 -0.00109651189170384 0)
(-0.0110192566084954 -0.00101569037712728 0)
(-0.00736562434182055 -0.000929789016156852 0)
(-0.00404408700609699 -0.000837796981038468 -6.52187600715658e-20)
(-0.00108812391924187 -0.000735942828746252 1.33356757923646e-19)
(0.00146647583161917 -0.000622062067721416 -1.36373473626226e-19)
(0.00355633478257117 -0.000487452212055742 6.96989101052151e-20)
(0.00509941617930178 -0.000328720609661395 0)
(0.00599056014804384 -0.000125346505790061 0)
(0.00600128160510686 0.000130391572524412 0)
(0.005019834017937 0.000483741848515541 -8.01650013805041e-20)
(0.00234947533309889 0.000613868117012388 -5.2514054306259e-18)
(0.00185350105624557 5.94101297983608e-05 -1.05323669729167e-17)
(0.0035897224217508 0.000217064623929341 2.04353520929489e-17)
(0.00663721962230214 0.000963097786909103 7.6612341070421e-20)
(0.0114081202112088 0.00293310060874367 7.48321767221467e-17)
(0.0176396297333513 0.00627434336572808 -6.98595491918618e-20)
(0.0255734198816482 0.0114130698095838 6.64432749848644e-20)
(0.0356042935115427 0.018705953910528 3.23934866009013e-17)
(0.0477731404196064 0.0282753213693329 -3.08101868459766e-17)
(0.0620228727770001 0.0399140423000131 -2.95610558643195e-17)
(0.0781937083893117 0.0533210613860506 -5.55219038697076e-20)
(0.0962466112574612 0.0681059271036593 6.057894327349e-20)
(0.115464048978763 0.0836140586081427 -2.65053344665069e-20)
(0.135071491101543 0.0996739391279174 5.25851847631588e-20)
(0.155374314478854 0.116953706288315 -2.67426903745777e-17)
(0.176882017727817 0.136080645280498 2.57631007954721e-20)
(0.200548530664411 0.157949661749466 -2.60674862984685e-17)
(0.227749118204965 0.183705337644422 -1.22528416170484e-20)
(0.262633006811085 0.214870686536177 1.17064132160736e-20)
(0.309584562964949 0.249878253465887 2.64913129295241e-21)
(0.370420798182508 0.284610677401273 -2.46486168950415e-21)
(0.449881721414279 0.31458386896381 0)
(0.548829050924753 0.326490727531452 0)
(0.666193147569365 0.30078266872501 -1.43781260202923e-20)
(0.748773696039536 0.213781776882002 -6.59262216461757e-18)
(0.740413482004839 0.108916666770969 0)
(0.640872332416567 0.0349032238915631 -1.07870242629949e-18)
(0.534440417825696 0.00815123212885384 0)
(0.563173998804846 0.00367174765481723 0)
(0.541336651251928 -0.00559441657524267 1.02469186507001e-18)
(0.471919190623705 -0.0291152499452962 4.02196934819366e-21)
(0.248964666401171 -0.0328547070573013 3.02102987288035e-21)
(-0.0274798955499428 0.031224419051879 4.02476178342812e-17)
(-0.103328173238552 0.0624217284343575 5.98407388262223e-17)
(-0.0762414335732887 0.0508330220090345 0)
(-0.0570929642832584 0.0424673111512657 0)
(-0.0447288539787902 0.0353051665034812 6.84867533637394e-17)
(-0.0370768702482844 0.029797318413186 7.2874910145595e-17)
(-0.0318251895237061 0.0254804489150584 -7.77400350890062e-17)
(-0.0299454555506389 0.0239450147774001 0)
(-0.0305653762626931 0.0245383478788349 -8.3920968251821e-17)
(-0.0340083019179886 0.0275859245758843 -1.87407362272997e-21)
(-0.0404330473891826 0.0330233676031381 -8.1471223305558e-17)
(-0.0492389647673692 0.040206046389485 7.77223267885951e-17)
(-0.0590876361540184 0.0477307119622159 -1.71176502792974e-21)
(-0.0687823093029787 0.0540481698982558 6.79113506809199e-17)
(-0.0777205270584298 0.05828520699117 -6.26761086746359e-17)
(-0.0854618937315796 0.0598446093033929 1.14180437084132e-19)
(-0.0919693080689928 0.058588139225841 -1.04091523060434e-19)
(-0.0977119423904236 0.054891144621726 0)
(-0.103107950599164 0.0494595118672979 4.64600635226635e-17)
(-0.108242330298334 0.04268794329518 4.41436769818146e-17)
(-0.113576313700959 0.0349787128924913 0)