/*--------------------------------*- C++ -*----------------------------------*\
  =========                 |
  \\      /  F ield         | OpenFOAM: The Open Source CFD Toolbox
   \\    /   O peration     | Website:  https://openfoam.org
    \\  /    A nd           | Version:  7
     \\/     M anipulation  |
\*---------------------------------------------------------------------------*/
FoamFile
{
    version     2.0;
    format      ascii;
    class       volVectorField;
    location    "2000";
    object      wallShearStress;
}
// * * * * * * * * * * * * * * * * * * * * * * * * * * * * * * * * * * * * * //

dimensions      [0 2 -2 0 0 0 0];

internalField   uniform (0 0 0);

boundaryField
{
    bottomWall
    {
        type            calculated;
        value           nonuniform List<vector> 
120
(
(-0.00272929231394043 1.81298048623645e-05 6.18866473556931e-23)
(-0.00320550019946739 8.28390822253509e-05 1.27547891699364e-19)
(-0.00177396345469177 0.000208566328154448 7.52316384526264e-37)
(0.000694041830766923 -0.000120917695289329 1.08070014804702e-18)
(0.0014293453143909 -0.000585510840104463 1.32098678002214e-22)
(0.000985392152121234 -0.000557176084045648 2.42952270093884e-22)
(0.00059055084103637 -0.000398752170654012 2.24548527351626e-18)
(0.000421177481760668 -0.000313574025595925 -2.25789316199353e-18)
(0.000293306251809645 -0.000232532461582909 6.36812122989901e-16)
(0.000213752071512093 -0.000173827898539847 6.36973744040543e-16)
(0.000152047109416536 -0.000125378284113964 -5.55236197133289e-22)
(0.000121425238088301 -0.000100999071272106 1.10989954702611e-21)
(0.00010515167156474 -8.90014955137435e-05 -1.11058392749747e-21)
(0.000105539986988512 -9.04758040852659e-05 2.27137777858386e-18)
(0.000122799736705195 -0.000104773151611719 2.27126054957347e-18)
(0.000155921904130234 -0.000130361732316049 2.21087917139416e-21)
(0.000197847455188469 -0.000160839109963471 2.25277041305826e-18)
(0.000240090232607959 -0.000187780683965172 -4.49723597273854e-18)
(0.000279120491114609 -0.000206928112639977 2.23736241789272e-18)
(0.000308926445298932 -0.000213456324756558 2.24306993120106e-18)
(0.000323355184945957 -0.000204215723250796 -2.23719952992613e-18)
(0.000323891414235439 -0.000182143540727353 2.23220893505251e-18)
(0.000317209943481815 -0.000154179108287017 2.27834252423467e-24)
(0.000301046768906069 -0.000122268060211586 -2.22195713462161e-18)
(0.000273967916447478 -8.85150292417997e-05 2.10648587667354e-35)
(0.000241098667012655 -5.59347784801429e-05 9.62964972193618e-35)
(0.000185864506094701 -2.53964947747753e-05 1.61775809445132e-16)
(0.000209993365635621 -1.27730878094679e-05 1.63598173602586e-16)
(0.000389953398440771 -8.41134944924468e-06 -5.14245408530175e-25)
(0.000575178736384434 -8.0509896160563e-06 -1.50507559331327e-32)
(0.000720914907577219 -7.73495909790865e-06 0)
(0.000849780566602022 -7.53184993965778e-06 1.73018438863629e-16)
(0.000959509324835913 -7.39283950655793e-06 1.73650917895173e-16)
(0.00105603070149237 -7.30855399096742e-06 0)
(0.00114124679132609 -7.27998833041967e-06 -2.8025420608485e-53)
(0.00121762585615455 -7.27482069412076e-06 -1.78623578269185e-51)
(0.00128640272623604 -7.28082675494715e-06 -0)
(0.0013486163174541 -7.27955761206797e-06 1.93456164396463e-21)
(0.00140482679252446 -7.26069117887112e-06 -1.59578196496116e-16)
(0.00145541204189738 -7.21412095048991e-06 -1.60878929819705e-16)
(0.00150054434040315 -7.13264633032608e-06 1.91560090805824e-21)
(0.00154029233531114 -7.01065787458448e-06 1.92052020139752e-21)
(0.00157464292781923 -6.84404246842441e-06 -1.91368916734112e-21)
(0.00160354734832805 -6.63096179573179e-06 1.92234887672731e-21)
(0.00162695094700315 -6.37107577973344e-06 -1.9175610382236e-21)
(0.00164481331092846 -6.06487213948184e-06 -0)
(0.00165710005135035 -5.7108947314932e-06 1.66645901608201e-16)
(0.00166372880815369 -5.30928515695813e-06 1.68327770098794e-16)
(0.0016646801719853 -4.86741558768519e-06 1.94630241176087e-21)
(0.00166008397413327 -4.39067431889683e-06 -9.75158261912001e-22)
(0.00165004773648706 -3.88487548646258e-06 9.84877976791795e-22)
(0.00163475382459926 -3.35719583383769e-06 -1.97622086041991e-21)
(0.00161443319442872 -2.81390793203428e-06 1.65347183896228e-16)
(0.00158935796118636 -2.26121589676346e-06 1.67054443894215e-16)
(0.00155983676702531 -1.70522258593051e-06 5.02976038690987e-22)
(0.00152620866950279 -1.15172049485351e-06 1.95588894800282e-41)
(0.00148883614388604 -6.0608288967092e-07 -2.98205406808274e-32)
(0.00144809840315203 -7.31643518880631e-08 2.58967834211945e-22)
(0.00140438463648783 4.42752578899239e-07 -3.9061077292435e-22)
(0.00135808794385935 9.37990946728995e-07 1.31179278311598e-22)
(0.0013095997233177 1.40948604893074e-06 0)
(0.00125930475685365 1.85479014850049e-06 -2.68534897723996e-22)
(0.00120757712728895 2.27201459041471e-06 2.69883543507915e-22)
(0.00115477662800256 2.65985044177746e-06 -3.17919573007137e-32)
(0.00110124581541965 3.01747970007696e-06 -0)
(0.0010473078840635 3.34456875790438e-06 5.5787459418802e-22)
(0.000993265027623051 3.64118303706611e-06 -5.60968571644376e-22)
(0.000939397230963256 3.9077752206342e-06 -0)
(0.000885961697770768 4.14510176318905e-06 0)
(0.000833193155446758 4.3541322332441e-06 0)
(0.000781304312890533 4.53610336264906e-06 0)
(0.000730487510233239 4.69227560248866e-06 0)
(0.000680917098527994 4.82407115817535e-06 -1.98402937471798e-16)
(0.000632749780227751 4.93311237054787e-06 -3.98931786980299e-16)
(0.000586123797259246 5.02109099923451e-06 -2.00384387456484e-16)
(0.000541162185540543 5.08970971027519e-06 4.86687213140332e-21)
(0.000497971475013356 5.14086391398697e-06 -2.44891971110453e-21)
(0.000456646770501316 5.17610703378283e-06 2.47359997147676e-21)
(0.000417269218327377 5.1974693126226e-06 -2.48504429363293e-21)
(0.000379917151012352 5.20607113868528e-06 -2.09693153013655e-16)
(0.0003446556905102 5.20420283033419e-06 -2.08992547808576e-16)
(0.000311565564760325 5.1919777001478e-06 2.5347027262722e-21)
(0.000280711433680689 5.17232509506893e-06 -2.55527549509981e-21)
(0.000252213298132547 5.14318179101938e-06 5.13411773568583e-21)
(0.000226167026330393 5.10892172889127e-06 -2.57828065042816e-21)
(0.000202802150155347 5.06297320634209e-06 5.19233685457943e-21)
(0.000182330048246441 5.01244023570151e-06 -1.04235549698589e-20)
(0.000165190777769151 4.94280789018689e-06 5.22976103759177e-21)
(0.000151971765516513 4.86512062651373e-06 5.25930328885428e-21)
(0.00014327724518981 4.75284132351071e-06 -1.05462740780312e-20)
(0.000141128940874649 4.62592153795618e-06 2.28695354862365e-26)
(0.000144725859899708 4.37298130430268e-06 6.4633710220888e-25)
(0.000165634514499487 8.77123709182996e-06 -1.46936793852786e-39)
(0.000172598538610756 2.23203849709081e-05 -5.31067403564567e-21)
(0.000165943250185643 3.29044658423838e-05 1.37191192345246e-18)
(0.000154034529940981 4.07391687232894e-05 9.37684607607739e-24)
(0.000127207459793508 4.01624668574593e-05 2.73353557892783e-18)
(8.78327933350864e-05 2.94378229644636e-05 2.76601630152763e-18)
(2.95494227515293e-05 2.89777047689871e-06 -2.77727267745728e-18)
(-5.66299330160649e-05 -4.66478769003927e-05 2.77685864916373e-18)
(-0.000174691459874338 -0.000123792993266456 -2.76167970763495e-18)
(-0.000325842826566763 -0.000228977084079936 -2.7452656612049e-18)
(-0.000508745029600226 -0.000360147692741767 -2.28704180895984e-34)
(-0.000723312519127101 -0.000513926018736259 -3.00926553810506e-36)
(-0.000950989151968738 -0.000676560934396829 2.69471367950614e-18)
(-0.00118115537696904 -0.000845000734273426 2.67999412722645e-18)
(-0.00143218399996685 -0.00103428968476868 2.6651124336669e-18)
(-0.00171851536017761 -0.00125713083682208 2.64842307541565e-18)
(-0.00206703073476692 -0.00153417026762484 2.62878565227307e-18)
(-0.00252005508737348 -0.00189768838146905 -2.59924149506926e-18)
(-0.00319596744636175 -0.00241074326815938 -2.55189403179329e-18)
(-0.00414821643043228 -0.00304874791740499 2.48264067082034e-18)
(-0.00537578051925549 -0.00373694884367273 -2.38223624147338e-18)
(-0.00702661484079224 -0.00442779365970702 -2.24246170113121e-18)
(-0.00901961107650177 -0.00483935952332244 2.05565628022811e-18)
(-0.0110368436449102 -0.00447572199989945 -4.66436158406284e-35)
(-0.0103610571090293 -0.00261234646507522 -8.35030526382357e-19)
(-0.00706892060388771 -0.000864701453083567 0)
(-0.00361624211751254 -0.000123229688060556 1.1331918963282e-19)
(-0.0022731262969474 6.46778574854688e-06 0)
)
;
    }
    topWall
    {
        type            calculated;
        value           nonuniform List<vector> 
120
(
(-0.00370240568167299 -8.21623826660453e-09 0)
(-0.00370700627731792 7.11607820474471e-08 0)
(-0.00370851229716802 1.61805730942278e-07 0)
(-0.00370673461467977 2.43746019147954e-07 0)
(-0.00370207266562478 3.11599911419554e-07 0)
(-0.00369494264163704 3.68794014682917e-07 0)
(-0.00368566461299744 4.17360636075459e-07 0)
(-0.00367451648106292 4.58359967637719e-07 0)
(-0.0036617406238849 4.92698291096915e-07 0)
(-0.00364755072348217 5.21350860384443e-07 0)
(-0.00363214024685533 5.44722910112543e-07 0)
(-0.00361569406849723 5.62945446199683e-07 0)
(-0.00359839812840882 5.76765332733494e-07 0)
(-0.00358038670064436 5.88202749341224e-07 0)
(-0.0035617448222728 5.97692737504284e-07 0)
(-0.00354255183357927 6.05545925636347e-07 0)
(-0.0035228468510848 6.13001990100201e-07 0)
(-0.00350266516390945 6.18947503272069e-07 0)
(-0.00348207557141422 6.23820993751025e-07 0)
(-0.0034610862787924 6.30215201920047e-07 0)
(-0.00343965478168181 6.37969983596323e-07 0)
(-0.00341775013605574 6.46839845045416e-07 0)
(-0.00339533510778965 6.56978289587552e-07 0)
(-0.0033723771279401 6.67757271603941e-07 0)
(-0.00334885795581682 6.79240991131271e-07 0)
(-0.00332475262618391 6.91647099904611e-07 0)
(-0.00330002148638846 7.05303013092769e-07 0)
(-0.00327464217826294 7.19079744896256e-07 0)
(-0.0032485916270002 7.3381793247188e-07 0)
(-0.00322185407193665 7.48172761662828e-07 0)
(-0.00319443071484799 7.62839583679325e-07 0)
(-0.00316631999986956 7.77200407898946e-07 0)
(-0.00313752074256201 7.91770311505427e-07 0)
(-0.0031080535101876 8.04984845630757e-07 0)
(-0.00307794629447225 8.17698613162006e-07 0)
(-0.00304725718003132 8.28022077297364e-07 0)
(-0.00301603519666701 8.37677775702739e-07 0)
(-0.00298435738869454 8.44871388252741e-07 0)
(-0.00295225148309988 8.50960467008748e-07 0)
(-0.00291988520916222 8.53101970557105e-07 0)
(-0.00288718134582039 8.5536778673795e-07 0)
(-0.00285456974597115 8.49447100932855e-07 0)
(-0.00282153298018603 8.53683129622213e-07 0)
(-0.00278911572715 8.07124642216326e-07 0)
(-0.00275769968194459 8.053167596831e-07 0)
(-0.00272541693361516 8.58304286523881e-07 0)
(-0.00269212624376083 8.36811308363907e-07 0)
(-0.00265982342072069 8.03644507315063e-07 0)
(-0.0026282965529199 7.84342356406826e-07 0)
(-0.00259737101347672 7.6272945032152e-07 0)
(-0.00256717281296406 7.39164451835052e-07 0)
(-0.00253775676461821 7.14508514812152e-07 0)
(-0.00250918258805957 6.88174442108565e-07 0)
(-0.00248152197359571 6.60169762963448e-07 0)
(-0.00245484073487478 6.30128104632615e-07 0)
(-0.00242925123267278 5.9821557527987e-07 0)
(-0.00240469137357134 5.67900753138853e-07 0)
(-0.00238111025901675 5.38969107127509e-07 0)
(-0.00235857815564484 5.07123728141192e-07 0)
(-0.00233725395588306 4.71248490660535e-07 0)
(-0.00231727844499625 4.32337030504344e-07 0)
(-0.00229874719645128 3.91398075712146e-07 0)
(-0.0022817299959469 3.492030057392e-07 0)
(-0.00226626182441506 3.06641838066781e-07 0)
(-0.00225235675697726 2.62638692125945e-07 0)
(-0.00224012629218215 2.14545838859148e-07 0)
(-0.00222966847639657 1.66141679995708e-07 0)
(-0.00222076051842905 1.26322226692917e-07 0)
(-0.00221303162365985 9.5904399029956e-08 0)
(-0.00220628062686924 6.85468116801468e-08 0)
(-0.0022005378353497 3.92767578180493e-08 0)
(-0.00219595163797273 6.30866764284448e-09 0)
(-0.00219268174632747 -3.03963626220203e-08 0)
(-0.00219088871641998 -7.10507037549953e-08 0)
(-0.00219072355613247 -1.15081708934864e-07 0)
(-0.00219231080192859 -1.62682344424535e-07 0)
(-0.00219580018663867 -2.14049503000042e-07 0)
(-0.00220131348781514 -2.679154581797e-07 0)
(-0.00220892405202829 -3.2362806438967e-07 0)
(-0.00221869825576149 -3.81400254058684e-07 0)
(-0.00223070318327886 -4.40795888468134e-07 0)
(-0.00224498645619232 -5.01206917854952e-07 0)
(-0.00226157892553074 -5.62600241585183e-07 0)
(-0.00228051598896293 -6.25164715575942e-07 0)
(-0.00230183499444978 -6.88505462048488e-07 0)
(-0.00232555082121649 -7.51811727639551e-07 0)
(-0.0023516571607632 -8.14783247587378e-07 0)
(-0.00238013941139226 -8.7729080335678e-07 0)
(-0.00241098530812951 -9.39374521412995e-07 0)
(-0.00244417200647242 -1.0003597752036e-06 0)
(-0.0024796547328849 -1.05972779292714e-06 0)
(-0.00251737249564553 -1.11724800779709e-06 0)
(-0.00255726628892867 -1.17303055146043e-06 0)
(-0.00259927119671699 -1.22634199359363e-06 0)
(-0.00264328767123773 -1.27601758786538e-06 0)
(-0.00268918567187325 -1.32167789587965e-06 0)
(-0.00273683196636507 -1.36320750907408e-06 0)
(-0.00278608285102576 -1.39987289239164e-06 0)
(-0.00283676191844133 -1.43067771549209e-06 0)
(-0.00288865558514754 -1.45475536518255e-06 0)
(-0.0029415426200064 -1.47161652096549e-06 0)
(-0.00299511080426522 -1.4787635050249e-06 0)
(-0.00304908206155365 -1.47822500037364e-06 0)
(-0.00310312016834356 -1.46612524442682e-06 0)
(-0.00315692609375889 -1.45080984829577e-06 0)
(-0.00321035882746514 -1.42081236049626e-06 0)
(-0.00326250518256351 -1.35958654820988e-06 0)
(-0.00331286341009235 -1.30294669002556e-06 0)
(-0.00336145731120571 -1.23981852209625e-06 0)
(-0.00340793435045608 -1.16436363859994e-06 0)
(-0.00345190646211103 -1.07959086812391e-06 0)
(-0.00349304480154559 -9.85941629952002e-07 0)
(-0.00353104279509304 -8.84944488649748e-07 0)
(-0.00356565448927771 -7.78809220959208e-07 0)
(-0.00359669527127662 -6.68628044581455e-07 0)
(-0.00362397367378977 -5.55154870908282e-07 0)
(-0.00364741250694719 -4.41724957962213e-07 0)
(-0.00366692622898753 -3.29873382286988e-07 0)
(-0.00368270857132801 -2.22718191632488e-07 0)
(-0.00369451088402692 -1.05929830294041e-07 0)
)
;
    }
    inlet_half0
    {
        type            cyclic;
    }
    inlet_half1
    {
        type            cyclic;
    }
    outlet_half0
    {
        type            cyclic;
    }
    outlet_half1
    {
        type            cyclic;
    }
    sideRight_half0
    {
        type            empty;
    }
    sideRight_half1
    {
        type            empty;
    }
    sideLeft_half0
    {
        type            empty;
    }
    sideLeft_half1
    {
        type            empty;
    }
}


// ************************************************************************* //
