5 	0.00391112967796274 	3.46944695195361e-18 	-0.0363650521253722 	-6.27698095405931e-05 	1.12199816035458e-20
5 	0.0118766651674915 	6.93889390390723e-18 	-0.0881972444811094 	-0.000320524593785103 	-1.48680230735664e-21
5 	0.020134001548576 	0 	-0.108929652961131 	-0.000856241268684265 	-1.53927077322976e-20
5 	0.0286938283423949 	-6.93889390390723e-18 	-0.112612145745304 	-0.00147055604737519 	-9.00152425949643e-21
5 	0.0375672266585909 	1.73472347597681e-18 	-0.111164370358495 	-0.00212130892484984 	-7.48746345785537e-22
5 	0.0467656835403033 	1.04083408558608e-17 	-0.108355214863913 	-0.00281741929920918 	-2.21339806339712e-22
5 	0.0563011068347008 	1.04083408558608e-17 	-0.105055833779601 	-0.00355337661789552 	-2.27110366268999e-21
5 	0.0661858406082649 	3.46944695195361e-18 	-0.101499626786382 	-0.0043235514284746 	-1.82332946311674e-21
5 	0.0764326811267816 	5.20417042793042e-18 	-0.0977599710605175 	-0.00512594433740136 	-2.4944491985071e-21
5 	0.0870548934207257 	1.21430643318376e-17 	-0.093858777504337 	-0.00596010917609995 	2.24884704736785e-21
5 	0.0980662284574838 	1.21430643318376e-17 	-0.0897977971295443 	-0.00682608495757033 	-3.93747099006979e-21
5 	0.109480940942647 	1.04083408558608e-17 	-0.0855695054974558 	-0.00772413405515701 	-1.24102355338873e-22
5 	0.121313807773416 	1.04083408558608e-17 	-0.0811613939949 	-0.00865465832476112 	5.83597113159263e-17
5 	0.13358014716801 	1.04083408558608e-17 	-0.0765577908129316 	-0.00961814523234824 	6.13114064003728e-17
5 	0.146295838495839 	8.67361737988404e-18 	-0.0717406453595332 	-0.0106151305983738 	-5.01068583949347e-17
5 	0.159477342834115 	8.67361737988404e-18 	-0.0666898361126263 	-0.0116461723364278 	-5.30157750503879e-17
5 	0.173141724277517 	1.21430643318376e-17 	-0.0613832410701145 	-0.0127118297300492 	-1.64202576961862e-21
5 	0.18730667202848 	1.21430643318376e-17 	-0.0557966803124615 	-0.0138126450859696 	1.09833146500137e-21
5 	0.201990523296728 	1.21430643318376e-17 	-0.0499037837062435 	-0.0149491260177834 	-2.49833101144629e-21
5 	0.217212287037675 	1.56125112837913e-17 	-0.0436758106827541 	-0.0161217271910993 	-1.12154456694956e-22
5 	0.232991668560441 	2.25514051876985e-17 	-0.0370814364742034 	-0.0173308306139309 	2.20746861265702e-21
5 	0.249349095037321 	3.12250225675825e-17 	-0.0300865130706342 	-0.0185767236756878 	-2.01102447350354e-22
5 	0.266305741947753 	3.46944695195361e-17 	-0.022653810303402 	-0.019859574172558 	-2.9202342885737e-22
5 	0.283883560490998 	2.60208521396521e-17 	-0.0147427413884227 	-0.021179401472039 	-3.81012322456067e-22
5 	0.30210530600303 	1.73472347597681e-17 	-0.00630907727508357 	-0.0225360427597442 	-4.8289621661706e-21
5 	0.320994567414413 	2.25514051876985e-17 	0.0026953448247773 	-0.0239291139503586 	1.82653474620907e-22
5 	0.340575797787321 	2.42861286636753e-17 	0.0123229111416809 	-0.025357965214237 	2.74102449706468e-21
5 	0.360874345971201 	2.60208521396521e-17 	0.0226305191243265 	-0.0268216256798942 	-2.23875978029426e-21
5 	0.38191648941809 	2.42861286636753e-17 	0.0336798324300277 	-0.0283187398453654 	7.76601324521693e-25
5 	0.403729468200045 	1.73472347597681e-17 	0.0455375026038864 	-0.0298474948284707 	-1.04919723071322e-24
5 	0.426341520272733 	2.08166817117217e-17 	0.0582753333332968 	-0.0314055361106056 	4.6629970235822e-21
5 	0.449781918030829 	1.90819582357449e-17 	0.0719703592205247 	-0.0329898511466818 	-6.67416816981078e-21
4.99999999999999 	0.474081006202548 	1.56125112837913e-17 	0.0867048009022582 	-0.0345965835545899 	-1.15313465583583e-21
5 	0.499270241132363 	1.56125112837913e-17 	0.102565856283423 	-0.0362210746399731 	-5.98904411287997e-21
5 	0.525382231502762 	1.56125112837913e-17 	0.119645385684028 	-0.0378590523949758 	-3.23231783653029e-22
5 	0.552450780547767 	2.25514051876985e-17 	0.138045394230716 	-0.0395051277805742 	-6.4444094019626e-22
5 	0.580510929812849 	3.20923843055709e-17 	0.157947534911495 	-0.0411344993488194 	-6.37427411651351e-21
5 	0.60959900451791 	3.98986399474666e-17 	0.179834348155902 	-0.0427311348787056 	1.47194759853742e-20
5 	0.639752660582032 	3.90312782094782e-17 	0.204246404741708 	-0.0442695319953978 	1.26045065915772e-21
5 	0.671010933370886 	3.72965547335014e-17 	0.231315159206641 	-0.0457186361710577 	9.32362911962323e-22
4.99999999999999 	0.7034142882299 	3.29597460435593e-17 	0.260898283414103 	-0.0470609275317458 	6.14073589521163e-22
4.99999999999999 	0.737004672868605 	2.68882138776405e-17 	0.292759443724725 	-0.0482813979955017 	1.88563803619236e-20
4.99999999999999 	0.771825571663975 	3.12250225675825e-17 	0.326680625623516 	-0.0493623910848487 	1.42522987417732e-21
4.99999999999999 	0.807922061953053 	2.68882138776405e-17 	0.362485298051943 	-0.0502825453564962 	-1.91255077254971e-20
4.99999999999999 	0.845340872387742 	1.21430643318376e-17 	0.399999211827155 	-0.0510180762946811 	1.92729778612169e-20
5 	0.884130443427308 	1.30104260698261e-18 	0.438991464250093 	-0.0515456112008215 	2.134964106184e-20
5 	0.924340990046897 	3.90312782094782e-18 	0.479128917284191 	-0.0518454841489941 	-1.88244794098991e-20
5 	0.966024566743241 	6.93889390390723e-18 	0.519960455330582 	-0.051904585956824 	4.40517476399214e-20
5 	1.00923513492173 	6.50521303491303e-18 	0.560933921658168 	-0.0517183739480465 	4.84450245397393e-24
5 	1.05402863275205 	1.2793585635329e-17 	0.601440659119788 	-0.0512920059753177 	-4.71236081526146e-22
5 	1.10046304758287 	1.99493199737333e-17 	0.640878741778291 	-0.0506405613256548 	-4.39009988256243e-20
5 	1.14859849100923 	2.71050543121376e-17 	0.678722343624183 	-0.0497879971094206 	-4.29319365344123e-20
5 	1.19849727668994 	2.82976767018717e-17 	0.714579760837916 	-0.0487642766074728 	4.22203804589537e-20
5 	1.25022400101563 	2.35271871429354e-17 	0.748225608492418 	-0.0476007685580082 	4.06986002521857e-20
5 	1.30384562673185 	2.42861286636753e-17 	0.779603849155544 	-0.046325010764527 	-2.58254320108639e-22
5 	1.35943156962565 	3.12250225675825e-17 	0.808855567598602 	-0.0449611551396358 	-3.49528284391908e-20
5 	1.41705378838762 	3.12250225675825e-17 	0.836182641279289 	-0.0435229092900337 	3.51640199381393e-20
5 	1.47678687776592 	2.08166817117217e-17 	0.861801272558606 	-0.0420205062117288 	-2.8460417193276e-20
5 	1.53870816513277 	1.73472347597681e-17 	0.885908913192545 	-0.040444424916791 	1.55193599066397e-21
5 	1.60289781058851 	2.08166817117217e-17 	0.908677954574789 	-0.0387717951082525 	5.6621440924394e-20
5 	1.66943891073266 	2.08166817117217e-17 	0.930154415445246 	-0.0370058272405494 	5.50218661130548e-20
5 	1.73841760623657 	2.42861286636753e-17 	0.950311066157528 	-0.0351660330943185 	4.69027729413286e-21
5 	1.80992319335659 	3.46944695195361e-17 	0.969189876036328 	-0.0332689091065866 	4.45312523232787e-20
5 	1.88404823953248 	4.5102810375397e-17 	0.986868624438068 	-0.0313129761935969 	-1.83622392175937e-21
5 	1.96088870322037 	5.20417042793042e-17 	1.00310485719132 	-0.0293390159202428 	-3.97914781554989e-21
5 	2.02024009608345 	5.55111512312578e-17 	1.01462111375036 	-0.0277852870859802 	-2.11551625043408e-21
5 	2.06000503604194 	0 	1.02213411930835 	-0.0267107444009559 	0
5 	2.09836474743796 	0 	1.02871157482021 	-0.0257088182803784 	0
5 	2.13536888877258 	-3.46944695195361e-18 	1.03468076743766 	-0.0247428530189096 	0
5 	2.17106536369585 	-6.93889390390723e-18 	1.04008974718431 	-0.023811835126937 	0
5 	2.20550038302044 	-6.93889390390723e-18 	1.04498064282033 	-0.0229144943742406 	0
5 	2.23871852454378 	-6.93889390390723e-18 	1.04939053207916 	-0.0220496550897054 	0
5 	2.27076279075613 	-6.93889390390723e-18 	1.05335207254081 	-0.0212161945321801 	0
5 	2.3016746645094 	-6.93889390390723e-18 	1.05689398516517 	-0.0204130159602695 	0
5 	2.33149416271872 	0 	1.06004143489682 	-0.0196390421687281 	0
5 	2.36025988816626 	6.93889390390723e-18 	1.06281633632869 	-0.018893211816467 	0
5 	2.38800907947441 	0 	1.06523760301967 	-0.0181744772739177 	0
5 	2.41477765931295 	-6.93889390390723e-18 	1.06732135295661 	-0.0174818038367449 	0
5 	2.44060028090272 	-3.46944695195361e-18 	1.06908107879836 	-0.0168141697595695 	0
5 	2.46551037287586 	-6.93889390390723e-18 	1.07052778911539 	-0.0161705666982965 	0
5 	2.48954018255081 	-1.38777878078145e-17 	1.07167012533843 	-0.0155500003007637 	0
5 	2.512720817678 	-6.93889390390723e-18 	1.07251445823052 	-0.0149514907772002 	0
5 	2.53508228671037 	-6.93889390390723e-18 	1.07306496719218 	-0.0143740733440042 	0
5 	2.55665353765073 	-1.38777878078145e-17 	1.07332370545941 	-0.0138167984783848 	0
5 	2.57746249552636 	-6.93889390390723e-18 	1.0732906541665 	-0.0132787319531226 	0
5 	2.59753609853934 	0 	1.07296376824822 	-0.0127589546449784 	0
5 	2.61690033293929 	0 	1.07233901718796 	-0.0122565621310981 	0
5 	2.63558026666389 	3.46944695195361e-18 	1.07141042362306 	-0.011770664108121 	0
5 	2.65360008179049 	6.93889390390723e-18 	1.07017010273565 	-0.0113003836907753 	0
5 	2.67098310584102 	1.04083408558608e-17 	1.0686083051305 	-0.0108448566719701 	0
5 	2.68775184198056 	1.38777878078145e-17 	1.06671346547848 	-0.010403230855328 	0
5 	2.70392799814879 	1.04083408558608e-17 	1.06447225855372 	-0.0099746656033438 	0
5 	2.71953251516198 	1.38777878078145e-17 	1.06186966341248 	-0.00955833177827863 	0
5 	2.73458559382185 	2.08166817117217e-17 	1.0588890353993 	-0.00915341228556435 	0
5 	2.74910672106653 	2.42861286636753e-17 	1.05551218452139 	-0.00875910345653304 	0
5 	2.76311469519732 	2.42861286636753e-17 	1.05171945766078 	-0.00837461752315166 	0
5 	2.776627650214 	1.38777878078145e-17 	1.04748982127952 	-0.00799918643572237 	0
5 	2.78966307929018 	6.93889390390723e-18 	1.04280094088658 	-0.00763206724857025 	0
5 	2.80223785741904 	6.93889390390723e-18 	1.03762925367009 	-0.00727254924248119 	0
5 	2.81436826325886 	6.93889390390723e-18 	1.03195003129841 	-0.00691996286188864 	0
5 	2.82607000020647 	6.93889390390723e-18 	1.02573743070144 	-0.00657369041530585 	0
5 	2.83735821672613 	1.04083408558608e-17 	1.01896453117782 	-0.00623317829846116 	0
5 	2.8482475259599 	1.38777878078145e-17 	1.01160335576577 	-0.00589795024535656 	0
5 	2.85875202464506 	1.38777878078145e-17 	1.00362487267182 	-0.00556762112136116 	0
5 	2.86888531136304 	1.38777878078145e-17 	0.994998967773894 	-0.00524191129990402 	0
5 	2.87866050414343 	1.73472347597681e-17 	0.985694370789303 	-0.00492065686583869 	0
5 	2.88809025744591 	2.08166817117217e-17 	0.975678504770577 	-0.00460379144327652 	0
5 	2.89718677854204 	2.42861286636753e-17 	0.964917192437382 	-0.00429135213830627 	0
5 	2.90596184331818 	2.77555756156289e-17 	0.953370324233933 	-0.00398386734825442 	0
5 	2.91442681151997 	3.12250225675825e-17 	0.940955138015324 	-0.00368080408229765 	0
5 	2.922592641458 	3.81639164714898e-17 	0.927517158314812 	-0.00338113836082729 	0
5 	2.93046990419394 	3.46944695195361e-17 	0.912914344341738 	-0.00308412101537319 	0
5 	2.93806879722526 	2.77555756156289e-17 	0.897086604215499 	-0.00279123821839476 	0
5 	2.94539915768638 	2.77555756156289e-17 	0.880014829633102 	-0.00250430549797079 	0
5 	2.95247047508334 	2.77555756156289e-17 	0.861684237331532 	-0.00222534551447487 	0
5 	2.9592919035784 	2.77555756156289e-17 	0.842060669543121 	-0.00195646948461487 	0
5 	2.96587227384055 	2.77555756156289e-17 	0.821074350329694 	-0.00169973144022625 	0
5 	2.97222010447726 	2.77555756156289e-17 	0.798604623394238 	-0.00145702753858547 	0
5 	2.97834361306218 	2.77555756156289e-17 	0.774459789871032 	-0.00123003978954423 	0
5 	2.98425072677325 	2.77555756156289e-17 	0.748346383706079 	-0.00102021014037766 	0
5 	2.98994909265477 	2.77555756156289e-17 	0.719820618943402 	-0.000828730308724439 	0
5 	2.99544608751689 	2.77555756156289e-17 	0.688210386834715 	-0.000656536023050004 	0
5 	3.00074882748522 	2.42861286636753e-17 	0.652488000537025 	-0.000504296880472913 	0
5 	3.00586417721304 	2.08166817117217e-17 	0.61105922991813 	-0.000372399485507801 	0
5 	3.01079875876789 	1.73472347597681e-17 	0.561407032372123 	-0.000260985076868376 	0
5 	3.01555896020418 	2.08166817117217e-17 	0.499452782764916 	-0.000170063572949955 	0
5 	3.02015094383281 	2.08166817117217e-17 	0.418571998533609 	-9.80300742609552e-05 	0
5 	3.02458065419861 	1.38777878078145e-17 	0.312298780130608 	-4.46778968603448e-05 	0
5 	3.02885382577582 	1.38777878078145e-17 	0.187333436247437 	-1.23257051380676e-05 	0
5 	3.03297599039165 	1.21430643318376e-17 	0.0611947006068664 	-5.2138497513962e-07 	0
