/*--------------------------------*- C++ -*----------------------------------*\
  =========                 |
  \\      /  F ield         | OpenFOAM: The Open Source CFD Toolbox
   \\    /   O peration     | Website:  https://openfoam.org
    \\  /    A nd           | Version:  7
     \\/     M anipulation  |
\*---------------------------------------------------------------------------*/
FoamFile
{
    version     2.0;
    format      ascii;
    class       volSymmTensorField;
    location    "2000";
    object      aij_LES;
}
// * * * * * * * * * * * * * * * * * * * * * * * * * * * * * * * * * * * * * //

dimensions      [0 2 -2 0 0 0 0];

internalField   nonuniform List<symmTensor> 
15600
(
(0.00201315646790977 -4.56601555547087e-05 0 -0.00242289997338906 0 0.000409743505479296)
(0.00203366353570954 -0.000193231190081691 0 -0.00250331527103581 0 0.000469651735326261)
(0.000531268866279811 -0.000191032065742228 0 -0.000780027296707452 0 0.000248758430427641)
(0.000139528881998075 -0.000136966416744638 0 -0.000245209914137893 0 0.000105681032139819)
(0.000163645661266387 -0.000310743473248064 0 -0.000272245495765485 0 0.000108599834499098)
(0.000179373106586255 -0.000578957021114284 0 -0.000321538250426032 0 0.000142165143839776)
(0.000106856296592935 -0.000560761715488539 0 -0.000240184412996668 0 0.000133328116403733)
(3.45948714518402e-05 -0.000359001749207848 0 -0.000112009314421999 0 7.74144429701583e-05)
(1.19616282505509e-05 -0.000346059849752348 0 -0.000104224033435756 0 9.22624051852051e-05)
(8.14253625238819e-06 -0.000330096941319042 0 -0.000101762457034089 0 9.36199207817011e-05)
(4.90209287971752e-06 -0.000211163807915191 0 -6.85257813816176e-05 0 6.36236885019001e-05)
(8.94057105721842e-06 -0.000177772552382504 0 -6.48012334411981e-05 0 5.58606623839797e-05)
(1.61070369420203e-05 -0.000239206707892957 0 -9.27340630152141e-05 0 7.6627026073194e-05)
(2.38581442597478e-05 -0.000243044402638797 0 -9.56094978301127e-05 0 7.17513535703648e-05)
(2.55307013778415e-05 -0.000215824035076205 0 -8.67298470329002e-05 0 6.11991456550586e-05)
(2.23378287871569e-05 -0.000178523794249338 0 -7.00217115866156e-05 0 4.76838827994587e-05)
(2.54706668460821e-05 -0.000198859176368489 0 -8.22849892703273e-05 0 5.68143224242452e-05)
(5.78578236997589e-05 -0.000379098589602909 0 -0.000173985861102682 0 0.000116128037402923)
(7.41107360633181e-05 -0.000414094045930878 0 -0.000217793072786714 0 0.000143682336723396)
(0.00013369176545081 -0.000624831620150106 0 -0.000405897672703878 0 0.000272205907253068)
(0.000177337968055508 -0.000667769544928703 0 -0.000541747858408072 0 0.000364409890352564)
(0.000295382359063059 -0.000782881003361007 0 -0.000783066335576536 0 0.000487683976513478)
(0.000403474545241841 -0.000791137418599152 0 -0.00101172037627614 0 0.000608245831034299)
(0.000564654341027285 -0.000783846312923458 0 -0.00128426024631881 0 0.000719605905291524)
(0.000674829758439393 -0.000657578384765532 0 -0.00144965296444919 0 0.000774823206009802)
(0.000848025186547849 -0.000527400672686954 0 -0.00172782067297794 0 0.000879795486430088)
(0.000879319911298879 -0.000314861705865666 0 -0.00179059490263708 0 0.000911274991338201)
(0.000967012824639258 -6.99110813613012e-05 0 -0.00192259125093729 0 0.000955578426298031)
(0.00113236940748274 9.81763372179925e-06 0 -0.00199079031073598 0 0.000858420903253241)
(0.00128584186888634 1.70811180790358e-05 0 -0.00231675763112943 0 0.00103091576224309)
(0.00132576041520583 1.58109454260339e-05 0 -0.00245593206711421 0 0.00113017165190837)
(0.00136268649247993 1.74750608808878e-05 0 -0.0026561357209191 0 0.00129344922843917)
(0.00136084861297138 1.99994809633446e-05 0 -0.00286623043233527 0 0.00150538181936388)
(0.00135407677321001 2.0870953847178e-05 0 -0.0031795576775564 0 0.00182548090434639)
(0.00134947623203559 2.09111393710774e-05 0 -0.00338371282716347 0 0.00203423659512789)
(0.00128702662178872 1.74627601470033e-05 0 -0.00347785244167404 0 0.00219082581988532)
(0.00130754101570301 1.46336541152076e-05 0 -0.00349496303626599 0 0.00218742202056298)
(0.00132021637833692 1.36106547789659e-05 0 -0.00358329412421932 0 0.00226307774588239)
(0.00133008358241036 1.2445848815956e-05 0 -0.00369755523102827 0 0.0023674716486179)
(0.00143668521101537 1.13331184474676e-05 0 -0.00383982965332585 0 0.00240314444231048)
(0.00135849875606465 1.04174188382107e-05 0 -0.00378158279712143 0 0.00242308404105679)
(0.00136882350523985 8.51287451762607e-06 0 -0.00400233925630049 0 0.00263351575106064)
(0.00128975956916793 5.21632866805849e-06 0 -0.00383268067123348 0 0.00254292110206555)
(0.0013324184229989 3.94007102477813e-06 0 -0.00392393310714215 0 0.00259151468414325)
(0.00134791681838876 2.63655912794728e-06 0 -0.00388112065625888 0 0.00253320383787013)
(0.00133606854820744 -1.29749335785013e-06 0 -0.00389540347411145 0 0.00255933492590401)
(0.0014195517914784 -1.90268538011748e-06 0 -0.00406599958077355 0 0.00264644778929515)
(0.00153587329880362 -1.8984212169324e-06 0 -0.0043184103496137 0 0.00278253705081008)
(0.00136676477734735 -4.62124982216711e-06 0 -0.00388062592007886 0 0.00251386114273151)
(0.00132664901468501 -5.52966085529481e-06 0 -0.00383017368521867 0 0.00250352467053366)
(0.00137748314351215 -6.35611821360804e-06 0 -0.00394994780738374 0 0.00257246466387158)
(0.00142043489926639 -9.38703889756202e-06 0 -0.0040873447582358 0 0.00266690985896941)
(0.00124114168244528 -9.44159382921304e-06 0 -0.00363171648147547 0 0.00239057479903019)
(0.00130642164840182 -1.0881955470796e-05 0 -0.00357608128899899 0 0.00226965964059717)
(0.00136476166066468 -1.19079163915301e-05 0 -0.00357507802925642 0 0.00221031636859174)
(0.0013864374111295 -1.40536066930359e-05 0 -0.00366512051969674 0 0.00227868310856723)
(0.00147767879928688 -1.98554129137002e-05 0 -0.00382334458152572 0 0.00234566578223884)
(0.00135196164851503 -1.54843757856161e-05 0 -0.00353407110459379 0 0.00218210945607877)
(0.00141001271480789 -1.96362803742353e-05 0 -0.00368574290823598 0 0.00227573019342808)
(0.00138442745864068 -2.26681013826233e-05 0 -0.0036305320111129 0 0.00224610455247221)
(0.00139441984620191 -2.34373248206405e-05 0 -0.00357456544674966 0 0.00218014560054775)
(0.00150645143790498 -3.22116719548487e-05 0 -0.00377602598654241 0 0.00226957454863743)
(0.0013847317665876 -2.90204958569444e-05 0 -0.00350920349177333 0 0.00212447172518573)
(0.00119314890447773 -2.16914931198046e-05 0 -0.00309188222572583 0 0.0018987333212481)
(0.00141701716576154 -3.13099968161155e-05 0 -0.00336887388882852 0 0.00195185672306698)
(0.00164007988012328 -4.49163064395967e-05 0 -0.00372597092115154 0 0.00208589104102826)
(0.00164797225755229 -4.89504686700933e-05 0 -0.00370039368917185 0 0.00205242143161955)
(0.00168039082117218 -5.86920826481427e-05 0 -0.00372324248109491 0 0.00204285165992273)
(0.00108531137597074 -2.39647592787135e-05 0 -0.00271293738296032 0 0.00162762600698958)
(0.00125748673460856 -3.41351728973548e-05 0 -0.00301688653241652 0 0.00175939979780796)
(0.00154964347364887 -6.04917036031083e-05 0 -0.00344253046940918 0 0.00189288699576031)
(0.00159071207109887 -6.5552359067659e-05 0 -0.00338252150943766 0 0.00179180943833879)
(0.00103464338132906 -2.57648051164288e-05 0 -0.00245017992626359 0 0.00141553654493453)
(0.00137603175725393 -4.43465050947291e-05 0 -0.00292921138990106 0 0.00155317963264713)
(0.00162872051247934 -6.8683214845987e-05 0 -0.00325483810020411 0 0.00162611758772477)
(0.00099975921094843 -2.53044932957921e-05 0 -0.00230170392704009 0 0.00130194471609166)
(0.00139394801657364 -5.22087293314034e-05 0 -0.00291482301521858 0 0.00152087499864494)
(0.00145547708847656 -6.18493029245023e-05 0 -0.00295061468459572 0 0.00149513759611915)
(0.0011928244258515 -4.39173240004983e-05 0 -0.00259592801406223 0 0.00140310358821073)
(0.00146376963777843 -7.16441257641935e-05 0 -0.00289761998015898 0 0.00143385034238055)
(0.0012750889910419 -5.24604758497605e-05 0 -0.00265942433256001 0 0.00138433534151811)
(0.000892433169900747 -2.51637103942689e-05 0 -0.00202398006092466 0 0.00113154689102391)
(0.0013894593203738 -6.46350593750266e-05 0 -0.00274346503336578 0 0.00135400571299198)
(0.00128453035478202 -5.93585323339494e-05 0 -0.00261974067606782 0 0.0013352103212858)
(0.00101254294275857 -4.18701076566628e-05 0 -0.00227205811137808 0 0.0012595151686195)
(0.00091150479320603 -3.66231703575793e-05 0 -0.00213072262038929 0 0.00121921782718326)
(0.000909385754078409 -4.10966096363241e-05 0 -0.00217848213682837 0 0.00126909638274996)
(0.00105057513337573 -6.50677275685083e-05 0 -0.00243684430981867 0 0.00138626917644294)
(0.000674055357856693 -3.18841092924506e-05 0 -0.00191030613445677 0 0.00123625077660008)
(0.000736102573399109 -4.68980389501457e-05 0 -0.00219649270865378 0 0.00146039013525467)
(0.00045428253566858 -2.7570096210554e-05 0 -0.00181817350934766 0 0.00136389097367908)
(0.000351170185713301 -2.46906875787128e-05 0 -0.00183467304652678 0 0.00148350286081348)
(0.000188101489554662 2.20685784633878e-05 0 -0.0023402461094665 0 0.00215214461991183)
(6.96087744878971e-06 0.000270238334238263 0 -0.0026750824234765 0 0.00266812154602771)
(-7.290462117306e-05 0.00054712349179657 0 -0.00290259710842994 0 0.002975501729603)
(-0.000205642806063812 0.000816877015445953 0 -0.00293410783812922 0 0.00313975064419303)
(-0.000356972881462999 0.00103216965475287 0 -0.002845713493422 0 0.003202686374885)
(-0.000510755985128388 0.00118757294077104 0 -0.00266488226232771 0 0.0031756382474561)
(-0.000649703090022652 0.0012608212893947 0 -0.00241289315880817 0 0.00306259624883082)
(-0.000696718075560184 0.00117946560119147 0 -0.00198322703565677 0 0.00267994511121695)
(-0.000722079155203596 0.00122139388233311 0 -0.00180029599217698 0 0.00252237514738057)
(-0.00067219237150028 0.00115770913904811 0 -0.00152622565534564 0 0.00219841802684592)
(-0.000514814147798409 0.000847436499762206 0 -0.00105128854363975 0 0.00156610269143815)
(-0.00034903880679865 0.000548108953163268 0 -0.000659005343777954 0 0.0010080441505766)
(-0.000291195135552509 0.000447435394742735 0 -0.000530532127914266 0 0.000821727263466775)
(-0.000367673152199635 0.000528318554595162 0 -0.000658612106268793 0 0.00102628525846843)
(-0.000436852872133604 0.00057177303821978 0 -0.000744810912663255 0 0.00118166378479686)
(-0.000442566566849878 0.000532206949470358 0 -0.000709226370219884 0 0.00115179293706976)
(-0.000313008928721735 0.000375146261728664 0 -0.000476789866910138 0 0.000789798795631873)
(-0.000363519184745974 0.000416004728898223 0 -0.000518997728176086 0 0.00088251691292206)
(-0.000545196734382084 0.000610600179352529 0 -0.000769995821146959 0 0.00131519255552904)
(-0.000491539026812538 0.000654684223721934 0 -0.000731483831574637 0 0.00122302285838718)
(-0.000372464292383082 0.00066830872065003 0 -0.000668871333113501 0 0.00104133562549658)
(-0.000379771268742649 0.000966898074607315 0 -0.00102252753239828 0 0.00140229880114093)
(-6.86935983354156e-05 0.00110292394154666 0 -0.00109048406581755 0 0.00115917766415297)
(0.000273991825344799 0.000649524452336441 0 -0.000688641794222355 0 0.000414649968877556)
(0.000409893165351256 0.000300813254837284 0 -0.000466177012072811 0 5.62838467215548e-05)
(0.000701069611282316 0.000191043466813008 0 -0.000679311998404021 0 -2.1757612878295e-05)
(0.00090550085958423 5.86866832253607e-05 0 -0.00107309019096275 0 0.000167589331378517)
(0.00130129565358284 -3.0184695687691e-05 0 -0.00153311596890842 0 0.000231820315325584)
(0.0104983387955066 -0.000535475962301479 0 -0.0112391563566251 0 0.000740817561118556)
(0.0115640204304491 -0.00123630684141931 0 -0.0126090309573555 0 0.00104501052690635)
(0.00655786831682476 -0.0020397481447151 0 -0.00786497322808074 0 0.00130710491125598)
(0.00234891259100551 -0.00206443112616272 0 -0.00417630904439997 0 0.00182739645339445)
(0.00101018284142478 -0.00270220463293195 0 -0.00293094967240662 0 0.00192076683098183)
(0.000220652585443037 -0.00300113669641353 0 -0.00226275870500257 0 0.00204210611955953)
(4.68721908253571e-06 -0.00326485920702113 0 -0.00193895067001993 0 0.0019342634509374)
(-0.000107376030249504 -0.00308995068442293 0 -0.00135810485463589 0 0.00146548088488539)
(-0.000177589394717344 -0.00282313859964416 0 -0.00112731449439097 0 0.00130490388910831)
(-0.000123497853577943 -0.0026335147665973 0 -0.00100102300430303 0 0.00112452085788097)
(-5.14512286325683e-05 -0.00232701435263915 0 -0.000875751871191252 0 0.00092720309982382)
(3.74693803102061e-05 -0.00215899727591596 0 -0.000860956630815403 0 0.000823487250505196)
(0.000107024370090165 -0.00210355046474581 0 -0.000837688712534579 0 0.000730664342444414)
(0.000195317705801038 -0.00208339635271011 0 -0.000825625015389902 0 0.000630307309588865)
(0.000273902402182719 -0.0021260079243703 0 -0.00085118744866057 0 0.000577285046477852)
(0.000342636538615046 -0.00222423540636488 0 -0.000853550363196776 0 0.000510913824581731)
(0.000390612441602759 -0.00232148758413722 0 -0.000903581722704741 0 0.000512969281101982)
(0.000482979482004291 -0.00256381441598947 0 -0.00109208764727311 0 0.000609108165268821)
(0.000596095572008138 -0.0027195375656219 0 -0.00134870445813728 0 0.000752608886129143)
(0.000728261176342857 -0.00285345626796614 0 -0.00171833974891813 0 0.000990078572575275)
(0.000900867447173612 -0.00297311291531615 0 -0.00217214736387606 0 0.00127127991670245)
(0.00122168489768711 -0.00299001550654045 0 -0.0028478000698271 0 0.00162611517213999)
(0.00159005501856589 -0.00288497296446988 0 -0.00353405774390329 0 0.00194400272533741)
(0.00204586230091001 -0.00269050018259335 0 -0.00426478884216359 0 0.00221892654125358)
(0.00251262548365173 -0.00231787373270805 0 -0.0050081252413454 0 0.00249549975769368)
(0.00298044768868327 -0.00179018145231193 0 -0.00573252177012233 0 0.00275207408143905)
(0.00334105957843979 -0.0010701673165703 0 -0.0062512453367607 0 0.0029101857583209)
(0.00375178465685297 -0.000266349390113821 0 -0.00670741495425972 0 0.00295563029740675)
(0.00432841188804962 1.41476451689064e-05 0 -0.00740909509106156 0 0.00308068320301194)
(0.00462126114111249 4.34976566503745e-05 0 -0.00836392429957174 0 0.00374266315845925)
(0.00472768215001368 4.09801843069131e-05 0 -0.00914763646188674 0 0.00441995431187307)
(0.00481028210508195 5.22042325634895e-05 0 -0.00997456464144619 0 0.00516428253636423)
(0.00462983845269537 5.53280886875845e-05 0 -0.0105367923560508 0 0.00590695390335539)
(0.0043450759173386 3.14954302060374e-05 0 -0.011118670724412 0 0.0067735948070734)
(0.00428023528330067 2.27830688294545e-05 0 -0.0116543466023157 0 0.00737411131901502)
(0.00410627684728911 -2.08310861180778e-06 0 -0.0121010938933902 0 0.00799481704610109)
(0.00426926782129978 -2.45190938959154e-05 0 -0.01257835604135 0 0.0083090882200502)
(0.00445683178538829 -2.13951458153776e-05 0 -0.0130763114865056 0 0.00861947970111726)
(0.00446056020337864 -3.7427624205807e-05 0 -0.0134500620807286 0 0.00898950187735)
(0.00470708589289096 -4.59770699166691e-05 0 -0.0135777473657473 0 0.00887066147285638)
(0.0047467655023495 -3.6854666086667e-05 0 -0.0139236976739372 0 0.00917693217158774)
(0.00452299822184354 -6.47892362243534e-05 0 -0.0139103220503683 0 0.00938732382852476)
(0.00467498548129806 -7.90353914963099e-05 0 -0.0141539436643289 0 0.00947895818303084)
(0.00474468045198162 -9.52524434055692e-05 0 -0.0141493050994522 0 0.00940462464747058)
(0.005035609069296 -0.000100881973614538 0 -0.014426969239961 0 0.00939136017066496)
(0.00509627769244227 -0.00011416736055331 0 -0.0145615349101567 0 0.00946525721771447)
(0.00527560296477545 -0.00014492813993265 0 -0.0146851260629659 0 0.00940952309819042)
(0.00547818730662946 -0.000115830745893795 0 -0.0148943762438824 0 0.00941618893725291)
(0.00550069183661357 -0.000120092241450598 0 -0.0147852009546299 0 0.00928450911801636)
(0.00538154410186583 -0.00014438905865924 0 -0.0146158399587559 0 0.00923429585689008)
(0.00537298499616062 -0.000149154322771423 0 -0.0143960868472098 0 0.00902310185104919)
(0.00542277024331997 -0.0001520386005917 0 -0.0144005068564853 0 0.00897773661316531)
(0.00545609910575184 -0.000176708589177648 0 -0.0142719413929674 0 0.00881584228721553)
(0.00572667225847959 -0.000191187873578997 0 -0.0141038818685528 0 0.00837720961007318)
(0.00593231998433347 -0.000185697261750147 0 -0.0139851653179881 0 0.0080528453336546)
(0.00583585759489799 -0.000186751229269782 0 -0.0138299744993532 0 0.00799411690445519)
(0.00592314669787154 -0.000211591154469277 0 -0.013732743306646 0 0.00780959660877452)
(0.00585530910587334 -0.000195308835622509 0 -0.0135160513514816 0 0.00766074224560824)
(0.00572026783956416 -0.000203833186275009 0 -0.013299116349221 0 0.00757884850965688)
(0.00575131347699347 -0.000223100075835521 0 -0.0131715156424478 0 0.00742020216545434)
(0.00577933110838283 -0.000226438197944164 0 -0.0130456010162742 0 0.00726626990789141)
(0.00562297354353805 -0.000228104043315778 0 -0.0128348169455907 0 0.00721184340205269)
(0.00561903227099319 -0.000237533517282974 0 -0.0125899985871887 0 0.00697096631619555)
(0.00561983832263117 -0.000244724014995848 0 -0.0123106030107467 0 0.00669076468811553)
(0.00578047592054172 -0.000253973763193437 0 -0.0121698402853883 0 0.0063893643648466)
(0.00571074540550457 -0.000253438992488949 0 -0.0119843504452731 0 0.00627360503976853)
(0.00570215239288726 -0.000262723557357121 0 -0.0118423934721399 0 0.00614024107925261)
(0.00555171105502412 -0.000265997584105578 0 -0.0116611764157864 0 0.0061094653607623)
(0.00548646118399871 -0.000269408521442311 0 -0.011375864206495 0 0.0058894030224963)
(0.0053108283946499 -0.000268899727652212 0 -0.0110297687078704 0 0.00571894031322049)
(0.00523007906974939 -0.000277178521998131 0 -0.01076885581006 0 0.00553877674031059)
(0.00535081730208817 -0.000281482528466595 0 -0.010636013881125 0 0.00528519657903685)
(0.00538615008242031 -0.000286051522476494 0 -0.0104635912311898 0 0.00507744114876949)
(0.00535328674666234 -0.000278874144086037 0 -0.010212063710838 0 0.00485877696417566)
(0.00531702935245041 -0.000279692393590626 0 -0.0101180295597707 0 0.00480100020732029)
(0.00528071426665637 -0.000281025491784675 0 -0.00995152524984476 0 0.00467081098318839)
(0.00508431611270241 -0.000283949374998594 0 -0.00965602801548323 0 0.00457171190278082)
(0.00509539402474674 -0.000287630153588921 0 -0.00957284975107187 0 0.00447745572632513)
(0.00493109333816971 -0.000289959769132271 0 -0.00934448888267207 0 0.00441339554450236)
(0.00492544063816926 -0.000288041943954509 0 -0.0092336241024529 0 0.00430818346428364)
(0.00486991191056175 -0.000294762275431759 0 -0.00905054949369088 0 0.00418063758312913)
(0.00490648224216767 -0.000289205713138817 0 -0.00900769526291323 0 0.00410121302074556)
(0.00471437066227345 -0.000274351838672458 0 -0.0087902430093055 0 0.00407587234703205)
(0.004457153584079 -0.000269711703604855 0 -0.00849473684679851 0 0.00403758326271951)
(0.00421360544177284 -0.000270303846557535 0 -0.00825036016418255 0 0.0040367547224097)
(0.00400379757096192 -0.000265723024910539 0 -0.00805389917781805 0 0.00405010160685614)
(0.00372434329919338 -0.000257384176226564 0 -0.00782762921620325 0 0.00410328591700987)
(0.00347736502471048 -0.000256280275234208 0 -0.00764996515038041 0 0.00417260012566993)
(0.00315232444119389 -0.000239813458557526 0 -0.00752131865122546 0 0.00436899421003158)
(0.00266703451961723 -0.000227919479711034 0 -0.00728417084453949 0 0.00461713632492226)
(0.00214958782245879 -0.000221501635666738 0 -0.00710451665473458 0 0.00495492883227579)
(0.00155382021250114 -0.000201116894420151 0 -0.00700829704403115 0 0.00545447683153001)
(0.000667891430284168 4.49895437925045e-06 0 -0.0075038090359689 0 0.00683591760568473)
(-5.61961320205209e-05 0.000722525028307041 0 -0.00842528219487746 0 0.00848147832689798)
(-0.00047247425789837 0.00159636351751729 0 -0.00925431444364868 0 0.00972678870154705)
(-0.00096098342980193 0.00242098940047335 0 -0.00942277266613945 0 0.0103837560959414)
(-0.00147423235250026 0.00320657396532969 0 -0.00940421390342668 0 0.010878446255927)
(-0.00207291395854306 0.00384109959524092 0 -0.00912117414980907 0 0.0111940881083521)
(-0.00263195793439096 0.00432283728916054 0 -0.00871262576418427 0 0.0113445836985752)
(-0.00301497774890719 0.00478905159772373 0 -0.00812274717664397 0 0.0111377249255512)
(-0.00323677263671553 0.00504708747273832 0 -0.00773638514667173 0 0.0109731577833873)
(-0.00337487789507195 0.00512016798594974 0 -0.00722261161658174 0 0.0105974895116537)
(-0.0034742486991269 0.00524933619276854 0 -0.00694233668156711 0 0.010416585380694)
(-0.00339424923828987 0.00508344385772012 0 -0.00649913064913573 0 0.0098933798874256)
(-0.0034537125936716 0.00501771119644935 0 -0.00645296777017702 0 0.00990668036384862)
(-0.00355292748459697 0.00483299847357714 0 -0.00644187682363407 0 0.00999480430823104)
(-0.00373804575819251 0.00477341810204972 0 -0.00643262232848868 0 0.0101706680866812)
(-0.00392449296565569 0.00465979786620201 0 -0.00640032762065445 0 0.0103248205863101)
(-0.0039885788000903 0.00474740103134661 0 -0.00636931215241397 0 0.0103578909525043)
(-0.00435113188287101 0.00479079800982209 0 -0.00652313206347022 0 0.0108742639463412)
(-0.00482463800289628 0.00523703801836963 0 -0.00720779617984796 0 0.0120324341827442)
(-0.00490651720424877 0.00554112468855957 0 -0.00743864891813601 0 0.0123451661223848)
(-0.00462823503323537 0.0058885340342137 0 -0.00785706886110571 0 0.0124853038943411)
(-0.0041819538980378 0.00599265475455263 0 -0.00881893752716238 0 0.0130008914252002)
(-0.0027662583665213 0.00593135276678319 0 -0.00905724502720843 0 0.0118235033937297)
(0.00132952846903786 0.00620371843532411 0 -0.00908893321887811 0 0.00775940474984025)
(0.0070579315703222 0.00500081724674422 0 -0.00933012971376531 0 0.00227219814344312)
(0.0109132994564771 0.00275384634769496 0 -0.00958959093886123 0 -0.00132370851761583)
(0.00864871331439327 0.000487177716237785 0 -0.00753473925069469 0 -0.00111397406369858)
(0.00837472779359082 -0.000268048227210553 0 -0.00808027037288983 0 -0.000294457420700984)
(0.0230531103828886 -0.00174001978226876 0 -0.0211362745787346 0 -0.00191683580415392)
(0.0244653707258231 -0.0030036750718296 0 -0.0233850862619504 0 -0.00108028446387264)
(0.0175927831178989 -0.0047874237433927 0 -0.0171215481597778 0 -0.000471234958121118)
(0.00642893284469165 -0.00454696950904899 0 -0.00914840547780103 0 0.00271947263310939)
(0.00162359722493509 -0.00487970547838353 0 -0.00586377781433429 0 0.00424018058939921)
(0.000427375728268084 -0.00535094448873539 0 -0.00426011661600297 0 0.00383274088773489)
(-0.000167841981727453 -0.00507283496022218 0 -0.00318820717090744 0 0.00335604915263489)
(-0.000385037545242628 -0.00496643632144186 0 -0.00242945488623417 0 0.0028144924314768)
(-0.000514390347353544 -0.00461690878958716 0 -0.00208168297750504 0 0.00259607332485858)
(-0.000441501683321166 -0.00441540379156929 0 -0.00187891977463528 0 0.00232042145795644)
(-0.000238209071112756 -0.00424799860967422 0 -0.00176203111230529 0 0.00200024018341805)
(-2.94153185477174e-05 -0.00420909330030135 0 -0.0017736067884734 0 0.00180302210702112)
(0.000180257168918797 -0.00427499794915417 0 -0.00174622108649155 0 0.00156596391757275)
(0.000427001243307816 -0.00438885005910517 0 -0.00173799960685177 0 0.00131099836354395)
(0.000655311333740266 -0.00455318857176288 0 -0.00177327984582724 0 0.00111796851208697)
(0.000848506052543973 -0.00483312410684411 0 -0.00178493823863302 0 0.000936432186089046)
(0.000982696446742374 -0.00496231277591421 0 -0.00185726708819367 0 0.000874570641451297)
(0.00113584053404655 -0.00523935373514332 0 -0.00214635738255509 0 0.00101051684850854)
(0.001264760521358 -0.00522211137858164 0 -0.00253815363925887 0 0.00127339311790086)
(0.00149033189372636 -0.0052424621566336 0 -0.00309136839373866 0 0.00160103650001231)
(0.00168101506676556 -0.00515273320007183 0 -0.00373463517110452 0 0.00205362010433896)
(0.00211441566126068 -0.00489020518269188 0 -0.00464156030342491 0 0.00252714464216423)
(0.00261907607444524 -0.00452874097674884 0 -0.00554126738663951 0 0.00292219131219427)
(0.00319258779843862 -0.00404919775060999 0 -0.0064440910463349 0 0.00325150324789628)
(0.00377844405661514 -0.00335876114034055 0 -0.00735209640979457 0 0.00357365235317943)
(0.00431881129353415 -0.00247811095351048 0 -0.00811245283504067 0 0.00379364154150652)
(0.00481869866879099 -0.00146563060804681 0 -0.00875974007763679 0 0.00394104140884581)
(0.00543490071565897 -0.000446962866170527 0 -0.00948242888559878 0 0.00404752816993981)
(0.00598219358261867 -0.000124587130040313 0 -0.0105513803164607 0 0.00456918673384201)
(0.00604085161419143 -0.000103599747992828 0 -0.0116480398255991 0 0.00560718821140765)
(0.00594317918653 -0.00012332431204749 0 -0.0126284185890709 0 0.00668523940254095)
(0.00573346194952782 -0.000143592532074094 0 -0.013462558620939 0 0.00772909667141121)
(0.00547033652757035 -0.000151550646877744 0 -0.0142203964499031 0 0.00875005992233278)
(0.00508405157213421 -0.000211861671360442 0 -0.0149954940005272 0 0.009911442428393)
(0.00489696788163663 -0.000247304711948357 0 -0.0156391030603437 0 0.010742135178707)
(0.00463719626625038 -0.00029978175780451 0 -0.016249706005803 0 0.0116125097395526)
(0.0047867864137933 -0.000355506181195782 0 -0.0168352245543374 0 0.0120484381405441)
(0.00495917160130563 -0.000359218248625911 0 -0.0173454109665265 0 0.0123862393652208)
(0.00500239227362754 -0.000399138924566017 0 -0.0178654966913152 0 0.0128631044176877)
(0.00537602079955325 -0.000381349538163525 0 -0.0182715352861764 0 0.0128955144866231)
(0.00534035119648495 -0.000372648660327424 0 -0.0184925705603494 0 0.0131522193638645)
(0.00521874893602093 -0.000406108709020795 0 -0.0187224151111871 0 0.0135036661751662)
(0.00539045899629768 -0.000447687650369947 0 -0.0188999461081316 0 0.0135094871118339)
(0.00560401135702041 -0.000454215233497097 0 -0.0191805709535661 0 0.0135765595965457)
(0.00596098783586185 -0.000475418068533859 0 -0.0194062941790345 0 0.0134453063431727)
(0.00615182766851186 -0.000486971688872571 0 -0.0197301877745308 0 0.0135783601060189)
(0.00647833160787067 -0.00052930601783257 0 -0.0200695028774793 0 0.0135911712696086)
(0.00672825411532803 -0.000459757998227946 0 -0.0202526634749009 0 0.0135244093595729)
(0.00677990550086201 -0.000449623096000161 0 -0.0201755442984995 0 0.0133956387976374)
(0.00675238073108261 -0.000478294829150599 0 -0.0201710496403834 0 0.0134186689093008)
(0.00680922218986913 -0.000481290359381566 0 -0.0198737275131383 0 0.0130645053232692)
(0.00695275422795772 -0.000496699021020617 0 -0.0197599347449342 0 0.0128071805169765)
(0.00705593944967763 -0.000529141499635121 0 -0.019667512001356 0 0.0126115725516784)
(0.00742961215572832 -0.0005456665670449 0 -0.0194594919714317 0 0.0120298798157034)
(0.00772173017581465 -0.000528233832430097 0 -0.0193718054560088 0 0.0116500752801942)
(0.00773329325195928 -0.000514203956226551 0 -0.0192518780679566 0 0.0115185848159973)
(0.00790363640127104 -0.000544958537799023 0 -0.0191798271717709 0 0.0112761907704999)
(0.00783469406611112 -0.000506170030826669 0 -0.0188963611943148 0 0.0110616671282037)
(0.00774067802927237 -0.000511014127480723 0 -0.0186380797881735 0 0.0108974017589012)
(0.00787556016699947 -0.000548668683270834 0 -0.0185061436134314 0 0.0106305834464319)
(0.00794156162768469 -0.00054609995023717 0 -0.018401677966869 0 0.0104601163391843)
(0.00781669772924331 -0.000533562545884768 0 -0.0181495696269033 0 0.01033287189766)
(0.00782372914273063 -0.000544839847003821 0 -0.0178896626482406 0 0.01006593350551)
(0.00791107007434517 -0.000560320015626785 0 -0.0175513161261443 0 0.00964024605179909)
(0.00811928547017662 -0.000573592913527203 0 -0.0173675082534454 0 0.00924822278326877)
(0.00812963547488624 -0.000568711328186793 0 -0.0171287047603156 0 0.00899906928542936)
(0.00816130727896387 -0.000576283508100452 0 -0.0169725418882489 0 0.00881123460928508)
(0.00797069532870369 -0.000571938405838896 0 -0.0167820657981684 0 0.00881137046946473)
(0.00794110728544305 -0.000571793751144772 0 -0.0165013057061891 0 0.00856019842074607)
(0.00786294877963054 -0.000575068502608696 0 -0.0161751657443136 0 0.00831221696468311)
(0.00785298278130181 -0.000589185898155539 0 -0.0158836837497248 0 0.00803070096842304)
(0.00798178074066344 -0.000589052701982633 0 -0.0156124224472354 0 0.00763064170657196)
(0.00804157162253294 -0.000599459347937876 0 -0.0154215729343639 0 0.007380001311831)
(0.00808067536492637 -0.000583562314482355 0 -0.0152277533312974 0 0.00714707796637104)
(0.0080159998888239 -0.000587020337424871 0 -0.015035593639274 0 0.00701959375045009)
(0.00798516764091464 -0.000585306007504281 0 -0.0147877521186033 0 0.00680258447768868)
(0.00784538674480835 -0.000597708102224233 0 -0.0145237342385701 0 0.00667834749376174)
(0.00785718519409917 -0.000601332499029207 0 -0.0143554093449341 0 0.00649822415083493)
(0.00772572853181801 -0.000606999313566677 0 -0.0141967085886278 0 0.00647098005680977)
(0.00770559851300626 -0.000606648471961338 0 -0.0139631789937841 0 0.00625758048077782)
(0.00772125923459946 -0.000622372662037667 0 -0.0138283577952491 0 0.00610709856064967)
(0.00773751493795682 -0.00061196425279257 0 -0.0137108758042712 0 0.00597336086631439)
(0.00744741519205925 -0.000576445705367783 0 -0.0134118875091811 0 0.00596447231712189)
(0.00715614814082192 -0.000562660181259939 0 -0.0131302521289644 0 0.00597410398814251)
(0.006858419142943 -0.000571986901721943 0 -0.012857895871129 0 0.00599947672818602)
(0.00657227387436907 -0.000568054805856968 0 -0.0125949534582035 0 0.00602267958383445)
(0.00618876181394142 -0.000556078124226444 0 -0.0123134464401777 0 0.00612468462623632)
(0.00586915107494773 -0.00055966601842181 0 -0.0120428156627014 0 0.00617366458775363)
(0.00537861167588482 -0.00052254994991445 0 -0.0118824571761847 0 0.00650384550029986)
(0.00466738420941153 -0.000502240114368525 0 -0.0116104306992644 0 0.0069430464898529)
(0.00387232719846177 -0.000497682423179493 0 -0.0113208025364233 0 0.00744847533796156)