/*--------------------------------*- C++ -*----------------------------------*\
  =========                 |
  \\      /  F ield         | OpenFOAM: The Open Source CFD Toolbox
   \\    /   O peration     | Website:  https://openfoam.org
    \\  /    A nd           | Version:  7
     \\/     M anipulation  |
\*---------------------------------------------------------------------------*/
FoamFile
{
    version     2.0;
    format      ascii;
    class       volSymmTensorField;
    location    "2000";
    object      aijBoussinesq;
}
// * * * * * * * * * * * * * * * * * * * * * * * * * * * * * * * * * * * * * //

dimensions      [0 2 -2 0 0 0 0];

internalField   nonuniform List<symmTensor> 
15600
(
(-5.29867959204272e-08 -1.37248576433469e-05 -7.32794488469271e-28 2.79775549899015e-07 2.07090969415133e-29 -0)
(-8.52315246706684e-07 -2.01399063005861e-05 -8.53426327766256e-24 1.55676771458745e-06 3.29598006166482e-25 -0)
(-4.65932334058463e-07 -2.2702555785367e-06 -0 2.37354763029099e-07 -0 -0)
(3.58419417150328e-07 5.57776233778762e-07 -1.89571498038971e-28 -4.01452032462296e-07 8.29056927428613e-29 -0)
(1.20576887400119e-06 9.61486412401562e-07 9.45790194306848e-29 -1.22790681879111e-06 -1.47569604704035e-29 -0)
(1.96995493864968e-06 9.40700155419917e-07 -1.25158178951955e-23 -1.95766955906714e-06 7.84490272311942e-24 -0)
(1.48437014940152e-06 4.80454775754139e-07 -2.17875511311361e-28 -1.4522958337967e-06 1.56816171830692e-28 -0)
(7.65679502345557e-07 1.70947927118037e-07 -4.16256467261126e-24 -7.63331055310727e-07 3.3256189831666e-24 -0)
(6.79661347160577e-07 1.18207532287619e-07 1.00625429505641e-21 -6.73548925918166e-07 -8.4160568804445e-22 -0)
(6.40036307827974e-07 1.06511278026068e-07 9.38954129163816e-22 -6.319437268118e-07 -7.89760064313583e-22 -0)
(4.11963935370378e-07 7.34727911921784e-08 -1.67305289694649e-28 -4.14127714045809e-07 1.35699160183907e-28 -0)
(3.84580281896143e-07 7.59217004522054e-08 3.36950509219057e-28 -3.84027308876407e-07 -2.79487594514683e-28 -0)
(6.58391666080028e-07 1.39462051182302e-07 -7.09297709508838e-28 -6.61197326290057e-07 5.66514075997137e-28 -0)
(8.68323440460991e-07 1.98353947975216e-07 -1.15534566212108e-27 -8.74710137111702e-07 8.97810491491749e-28 -0)
(1.03415584600789e-06 2.51485606088144e-07 5.6552706768496e-24 -1.03835509155747e-06 -4.45663161123734e-24 -0)
(1.11204921408845e-06 2.75157431783626e-07 2.48196159078185e-27 -1.12029096657143e-06 -1.92221997000289e-27 -0)
(1.66822887381308e-06 4.2434001742262e-07 9.15926889595918e-24 -1.67591455675427e-06 -7.14454045389558e-24 -0)
(4.20239751671098e-06 1.17238710823021e-06 -2.33986727455307e-23 -4.19965016655639e-06 1.77693723162263e-23 -0)
(5.74898718579887e-06 1.85281985751573e-06 -3.09429286611345e-26 -5.7340666255397e-06 2.15244664916978e-26 -0)
(1.08399508222422e-05 4.21873756549912e-06 1.13547009381032e-25 -1.08062842503261e-05 -7.56828976917975e-26 -0)
(1.40245907627821e-05 6.7415625990159e-06 -8.88949338709146e-23 -1.40094911444526e-05 5.59752531192106e-23 -0)
(1.92698275623659e-05 1.19777789893119e-05 1.33560215406387e-22 -1.90216859078417e-05 -7.36876289706444e-23 -0)
(2.20899429529367e-05 1.80110221125797e-05 1.72681054530145e-26 -2.18376631893433e-05 6.07344157427097e-27 -0)
(2.38625395781769e-05 2.57686271193578e-05 -2.20250689897804e-25 -2.35081078413168e-05 9.27144259873804e-26 -0)
(2.12840212064992e-05 3.1557307975492e-05 -0 -2.09117944742863e-05 -0 -0)
(1.7888499025705e-05 3.91900508021373e-05 -0 -1.7452412074845e-05 -0 -0)
(1.08934881331854e-05 4.1456187421395e-05 2.08173196478421e-20 -1.06608525004538e-05 -2.64155150500243e-21 -0)
(4.01327972266208e-06 4.76262161460097e-05 2.38412232942397e-20 -4.30764270351658e-06 -1.07695842743901e-21 -0)
(1.00852140156915e-06 5.75407917216538e-05 -9.28814828501411e-29 -1.6875854984164e-06 1.35668039438358e-30 -0)
(1.23186470269509e-06 7.77545457488676e-05 -3.74253294287246e-36 -1.32457767476702e-06 3.18352958302267e-38 -0)
(9.66573942908864e-07 9.04469075666874e-05 -0 -1.01568792325761e-06 -0 -0)
(7.76956705582033e-07 0.000104662036237842 5.96722376436018e-20 -8.10270431657443e-07 -2.31382178289813e-22 -0)
(5.7046309388879e-07 0.000117333906290512 6.74361897997131e-20 -6.08747474243904e-07 -1.74516668433866e-22 -0)
(2.92986208521909e-07 0.0001331719702229 -0 -3.34512974889861e-07 -0 -0)
(1.36938301146639e-07 0.000142659806489488 -0 -9.63811281434481e-08 -0 -0)
(2.73960327834644e-08 0.000146293676252142 -0 1.58221282034374e-07 -0 -0)
(-2.53817021312973e-07 0.000144584883835088 -0 3.32909236753589e-07 -0 -0)
(-3.34515998874858e-07 0.000145686227619333 5.77158779030328e-25 4.36273961434957e-07 4.52210884464939e-28 -0)
(-5.29363181786183e-07 0.000146169469541901 -8.02361352099738e-20 8.00413069843734e-07 -2.20211970896427e-22 -0)
(-6.81976358715142e-07 0.000144132842703008 -7.96240403626078e-20 6.74295959016367e-07 -1.85888745788473e-22 -0)
(-6.24105236237949e-07 0.000138256789802702 5.67452015436362e-25 6.7199901596475e-07 4.65710173586644e-28 -0)
(-7.83376097706792e-07 0.000138848355834616 5.51263017474022e-25 9.81042539681025e-07 7.77364677387787e-28 -0)
(-7.80503327639068e-07 0.000126553790704411 -5.28133279341675e-25 9.79724237618758e-07 -7.44748229609911e-28 -0)
(-8.13989901463346e-07 0.00012096263490388 4.85492412943218e-25 1.09527495089513e-06 7.68200597242691e-28 -0)
(-9.22731851752105e-07 0.000112905035076428 -4.80027029717162e-25 9.7192797691932e-07 -7.59552654342525e-28 -0)
(-1.00544051428836e-06 0.000104981752207693 -0 1.15556176175749e-06 -0 -0)
(-1.06301362948137e-06 9.99095191056744e-05 5.70643216527636e-20 1.18634126202613e-06 3.39275085455642e-22 -0)
(-1.01886508523092e-06 9.75561779244222e-05 5.59467394927292e-20 1.10124128414174e-06 3.15450040646251e-22 -0)
(-6.94128647918716e-07 8.08227945661221e-05 3.38514121616716e-25 9.85204096614044e-07 8.712298545739e-28 -0)
(-8.94171527298834e-07 7.19455692261475e-05 -1.60874987487007e-25 1.14929826438604e-06 -4.39319450343281e-28 -0)
(-1.03109744645221e-06 6.49274705894826e-05 1.32937703934095e-25 1.08488088225055e-06 4.16559835513566e-28 -0)
(-8.22364989243629e-07 6.02911093299562e-05 -2.61346639276018e-25 1.01938321958636e-06 -8.79255113148293e-28 -0)
(-8.21797583563221e-07 4.63898291809898e-05 2.55142448843847e-20 1.08341297855093e-06 2.98227458124747e-22 -0)
(-8.64413591098128e-07 3.75963116420602e-05 2.07276048430514e-20 9.63301187789464e-07 2.65364703322468e-22 -0)
(-7.65573315316047e-07 3.11519421850279e-05 3.98922358271818e-26 8.23816961769372e-07 1.69707543610902e-28 -0)
(-7.72929035088506e-07 2.54016719866109e-05 -0 8.48127404432739e-07 -0 -0)
(-6.18636783445132e-07 2.01581393359054e-05 -1.93917982125567e-36 7.95029921590134e-07 -3.82497598458817e-38 -0)
(-6.11596729168301e-07 1.34556492363327e-05 8.36456568160506e-27 7.98949192476645e-07 8.71088993538873e-29 -0)
(-8.14632716534044e-07 7.22820872601619e-06 -1.13695114372665e-26 9.14669469511832e-07 -1.36105689770553e-28 -0)
(-6.85083656078332e-07 7.18056176282323e-07 2.60160835868174e-27 7.65221447916032e-07 4.4530801933355e-29 -0)
(-6.62908327068481e-07 -4.44822784899146e-06 -0 7.29010907672698e-07 -0 -0)
(-7.35862533129786e-07 -1.10832203112327e-05 3.67856723686084e-27 8.6195944425559e-07 -9.59379727987754e-29 -0)
(-5.20437923680285e-07 -1.59378125543832e-05 -3.41318379827941e-27 7.20492862919756e-07 8.90167049592895e-29 -0)
(-3.93944250010123e-07 -1.79476568171851e-05 1.72665633558446e-36 5.07217751889057e-07 -2.44037030265598e-38 -0)
(-5.33898953436983e-07 -2.37199619046137e-05 -0 5.82200484586593e-07 -0 -0)
(-6.25713957201361e-07 -3.16403413317006e-05 -2.63124595474577e-26 7.07920518652556e-07 2.01564543103732e-28 -0)
(-5.98613016063457e-07 -3.63017916132088e-05 2.61409929418075e-26 7.10801366843359e-07 -2.00251036551328e-28 -0)
(-4.86157480742003e-07 -4.2128433800467e-05 -0 7.52917516306557e-07 -0 -0)
(-2.7984988174362e-07 -3.34533122633547e-05 -0 3.83048585728275e-07 -0 -0)
(-3.61286040221513e-07 -4.02106207268181e-05 -0 4.34537608495086e-07 -0 -0)
(-4.08112777433717e-07 -4.99278193779873e-05 -0 5.16123455310428e-07 -0 -0)
(-2.69726396100805e-07 -5.230392708278e-05 -0 3.65455003441027e-07 -0 -0)
(-1.40226317080065e-07 -3.90296354928316e-05 2.15274505970014e-20 1.76325962242709e-07 -4.86182099834098e-23 -0)
(-1.98282660771072e-07 -4.8255591602698e-05 5.3152379221992e-20 2.46643562554635e-07 -1.35813337875277e-22 -0)
(-1.87775877901442e-07 -5.63514785387138e-05 3.09774555674349e-20 2.85386753992621e-07 -7.85039439371252e-23 -0)
(-1.43135297115209e-07 -4.06596936071624e-05 -2.73004550682261e-25 1.65065545823126e-07 3.41733858248573e-28 -0)
(-1.66855223089496e-07 -5.32706810047178e-05 1.76841096656842e-25 1.80460169558682e-07 -1.81551878190101e-28 -0)
(-9.48303497507166e-08 -5.52726094267811e-05 -1.88406554031197e-25 1.40770215897536e-07 1.06908774050358e-28 -0)
(-2.52630608963091e-08 -4.9093996624535e-05 1.65046317423216e-25 6.26015149875351e-08 -9.36533208622908e-29 -0)
(8.50178664041892e-10 -5.54783960459273e-05 3.06289829753733e-20 -1.80836557364594e-08 4.9735911314277e-24 -0)
(4.40917849104521e-08 -5.04489842125514e-05 2.77131226828287e-20 -3.03873450656252e-09 8.29184332452455e-25 -0)
(4.38572565378731e-09 -3.81764458381052e-05 -1.27770889580153e-25 -1.92341392025465e-08 -1.33973054224836e-29 -0)
(-4.10003373976115e-08 -5.25120195038859e-05 1.76008728796502e-25 -2.61954361090224e-08 6.88198046665829e-29 -0)
(7.53790005971807e-08 -4.96986196394368e-05 -3.33227935258574e-25 -8.04105876702755e-08 -2.28417785355648e-28 -0)
(1.58412152251071e-07 -4.21324791400778e-05 1.4279465008077e-25 -1.78971265790591e-07 1.40578599847398e-28 -0)
(1.76121193262475e-07 -3.8052543906375e-05 -2.45634885827095e-25 -2.2352456498784e-07 -5.31946780989142e-28 -0)
(1.44833643116483e-07 -3.73433917753833e-05 4.93219715301716e-25 -2.7605004055156e-07 1.43542841831268e-27 -0)
(3.98223500678289e-07 -3.98781252105401e-05 -2.72437760089976e-25 -4.92639921014689e-07 -1.00400026044643e-27 -0)
(3.2858130546863e-07 -2.78023928573313e-05 -1.68576045842182e-25 -4.21921764292025e-07 -1.05739652119866e-27 -0)
(4.5598330711872e-07 -2.91879733457059e-05 3.58929497273406e-25 -5.96289140416029e-07 2.65894930477997e-27 -0)
(5.75064958681762e-07 -1.97366369624668e-05 -1.34993360239749e-25 -6.15966901537712e-07 -1.18215003551099e-27 -0)
(5.32647728292762e-07 -1.49263985827123e-05 -0 -8.8374646407348e-07 -0 -0)
(1.31221926054977e-06 -1.28055624250879e-05 -0 -1.60392698611538e-06 -0 -0)
(3.30287217729648e-06 -1.37090745287222e-05 -2.355301086756e-23 -3.02138820577315e-06 -2.56002597571834e-24 -0)
(7.79138714051899e-06 -1.88673279993937e-05 -2.159790515176e-25 -7.37544119681185e-06 -4.43197088025011e-26 -0)
(1.50447236929737e-05 -2.39829195051318e-05 -5.49024131703779e-26 -1.44091085487211e-05 -2.98235219340547e-26 -0)
(2.35788953784541e-05 -2.69584847811298e-05 4.25608068638977e-25 -2.28714415507341e-05 1.59058079152521e-25 -0)
(3.21317505710604e-05 -2.76052025380106e-05 -2.26767528843847e-25 -3.12917484423691e-05 -9.31511913758488e-26 -0)
(3.96545451138176e-05 -2.59462470001232e-05 -0 -3.86630242596574e-05 -0 -0)
(4.07953282307953e-05 -2.0673059352241e-05 -0 -4.04148858238452e-05 -0 -0)
(4.50185115142769e-05 -1.85907514799232e-05 2.73452180585557e-22 -4.43725508171605e-05 1.81372619718918e-22 -0)
(4.44902857673046e-05 -1.53720283975182e-05 2.590480553725e-22 -4.39673259717829e-05 1.83322181500352e-22 -0)
(3.47976172598048e-05 -1.04660836878916e-05 -0 -3.4570076547851e-05 -0 -0)
(2.33841545971249e-05 -6.45356931416243e-06 -0 -2.33235347945619e-05 -0 -0)
(1.99484457077663e-05 -5.35133622082181e-06 -0 -1.99248231302726e-05 -0 -0)
(2.53856368791202e-05 -6.66484384671439e-06 -1.40761380272e-22 -2.522754094863e-05 -1.08165789118195e-22 -0)
(2.97585872161555e-05 -7.38830700513054e-06 -1.63777244338477e-22 -2.97001212247264e-05 -1.27967926622083e-22 -0)
(2.96827564279058e-05 -6.78809521397908e-06 -1.6134878425041e-22 -2.96103519878304e-05 -1.28460894102427e-22 -0)
(2.08853137640161e-05 -4.35728052735592e-06 -1.12042734092585e-22 -2.07179762541343e-05 -9.06787193062495e-23 -0)
(2.36921760376981e-05 -4.40522713605934e-06 1.26015463513666e-22 -2.3701226107056e-05 1.04801269241299e-22 -0)
(3.94448314602715e-05 -6.75991869963226e-06 2.07085525601978e-22 -3.88077134063838e-05 1.72970494014266e-22 -0)
(4.10666091658511e-05 -7.17558888447515e-06 -0 -4.05884248738011e-05 -0 -0)
(4.03412489396984e-05 -8.92795978792439e-06 -3.53066749517844e-27 -4.02542778523038e-05 -2.70871731040892e-27 -0)
(6.31987317476132e-05 -2.01342510697437e-05 1.09548503438962e-26 -6.21965308217826e-05 7.93956974220674e-27 -0)
(7.3494872494698e-05 -3.44796645028732e-05 -6.29156440750392e-27 -7.34828605926828e-05 -4.3392191987846e-27 -0)
(3.98289960812668e-05 -3.15750913276078e-05 -0 -4.03663216447097e-05 -0 -0)
(1.33810056402672e-05 -2.14089525957338e-05 8.27675614428946e-23 -1.42199149584126e-05 2.50401260704823e-23 -0)
(5.82420325224346e-06 -2.20008447981686e-05 -0 -6.80358370069211e-06 -0 -0)
(1.22212536362446e-06 -1.55995807480877e-05 -0 -1.72299361926996e-06 -0 -0)
(2.72903336175163e-07 -1.10275811862378e-05 -0 -4.09611533219075e-07 -0 -0)
(-2.79944290290936e-06 -0.000621394563672175 -0 1.25135609967647e-05 -0 -0)
(-2.64174004386216e-05 -0.000781336332611476 -3.31386300365656e-22 5.80881417313656e-05 1.23007066796252e-23 -0)
(-5.12725095833081e-05 -0.000319714712036686 -2.64215574436685e-26 4.11988872551624e-05 -1.25207207791643e-26 -0)
(1.50241558850319e-05 2.82784170827432e-06 -1.15692988312567e-19 -1.76999683537164e-05 5.41843067443802e-20 -0)
(5.64606402023325e-05 4.51575084788276e-05 -2.67691189407681e-19 -5.61879266654635e-05 1.28727304369812e-19 -0)
(5.73456786635894e-05 2.95089362711709e-05 2.96973678403923e-22 -5.69657510456591e-05 -1.86142308217532e-22 -0)
(4.57450418342512e-05 1.59641248985109e-05 3.05762189304322e-27 -4.49376293897628e-05 -1.18432699461259e-27 -0)
(3.47364308467093e-05 8.40898790431859e-06 1.47942659790965e-22 -3.45710503265306e-05 -1.18196095906015e-22 -0)
(2.79057611048567e-05 5.29878732418733e-06 -3.3103402044284e-20 -2.77043811971359e-05 2.76871375496576e-20 -0)
(2.50642946371775e-05 4.28618800298082e-06 -2.93664639879147e-20 -2.4826745913346e-05 2.47006386938842e-20 -0)
(2.39490076272855e-05 4.25570064985168e-06 7.67883771568953e-26 -2.39656314624667e-05 -6.44886419056447e-26 -0)
(2.56174231811218e-05 4.87042807154116e-06 -8.71406829919761e-26 -2.56055240987899e-05 7.12851705996568e-26 -0)
(3.05037025592109e-05 5.99693895269254e-06 8.88700206407999e-26 -3.05712203150948e-05 -7.26998500018386e-26 -0)
(3.89664595155483e-05 8.01102245342171e-06 3.60999897508398e-22 -3.90196218236862e-05 -2.9245916256112e-22 -0)
(5.26422482921098e-05 1.15192984890369e-05 -7.07233411325386e-22 -5.24214117990238e-05 5.61620324103226e-22 -0)
(6.96135561331625e-05 1.56547238491772e-05 4.19697606033408e-25 -6.95882879199844e-05 -3.31077647252693e-25 -0)
(8.99561590469817e-05 2.0933669329274e-05 -3.99888956519314e-22 -8.98959971854711e-05 3.11916117677547e-22 -0)
(0.000122557628085258 3.21311303273748e-05 5.90973887626302e-22 -0.000122335922219381 -4.48775951124405e-22 -0)
(0.000149626871382739 4.59989447520412e-05 -2.29279806708378e-24 -0.000149320808670913 1.70734221453521e-24 -0)
(0.000184246983703304 6.88768021051143e-05 3.52543657746529e-24 -0.000183646405569902 -2.32439079218047e-24 -0)
(0.000214245514670572 0.000100589502838824 1.40329309905262e-21 -0.000216993822507151 -8.83567518926933e-22 -0)
(0.000239355639738574 0.000147805927833614 -1.87179247608959e-21 -0.000239584698912578 1.03276321539027e-21 -0)
(0.000250521194145485 0.000203321649360746 -4.27260121647138e-21 -0.000251558387610917 2.03701342050487e-21 -0)
(0.000247391545282771 0.000268008999046866 7.87204898986452e-24 -0.000248482533102918 -3.40329732573677e-24 -0)
(0.000222255605837666 0.000333175361535445 -2.88440628943146e-21 -0.000222782336829917 8.76841010383865e-22 -0)
(0.000176044962555997 0.000392394269720695 3.17851636845153e-21 -0.000176406008111304 -6.81358988391246e-22 -0)
(0.000116363307314788 0.000434853535655701 -2.72621040879467e-19 -0.000113893154378432 3.43901798329885e-20 -0)
(5.68732054994023e-05 0.000489741474084679 -2.94128498928341e-19 -6.14653504583038e-05 1.30933057109723e-20 -0)
(3.38927263482063e-05 0.00060795846136756 3.4362428083375e-27 -3.83200868363567e-05 -6.6583685920372e-29 -0)
(3.25266769849656e-05 0.000752574545857492 4.87163770147066e-35 -3.01919739371404e-05 -4.14398563142558e-37 -0)
(2.61944518366708e-05 0.000866249484537093 -0 -2.3474903967549e-05 -0 -0)
(1.92265608394013e-05 0.00096497350857435 -8.21403545588921e-19 -1.74267785028948e-05 3.17757096318495e-21 -0)
(1.13543760719074e-05 0.00103108147582563 -8.88247183661986e-19 -1.17053877612986e-05 2.29029159478018e-21 -0)
(5.98398606237411e-06 0.00109751645888797 -6.3754480755549e-23 -4.89686315737628e-06 1.01549028563893e-25 -0)
(-2.13497591907615e-07 0.00114018556922264 3.36308860997815e-23 1.03559314790159e-06 -3.00617166270852e-26 -0)
(-7.08245112942834e-06 0.00115888414868111 3.4472124805392e-23 6.88328052924261e-06 3.98090822480266e-26 -0)
(-1.01611509408949e-05 0.00115600595908416 -3.57491234392209e-23 1.21488296187263e-05 -4.12837851835637e-26 -0)
(-1.32221629091525e-05 0.00115503315593938 -1.85442695983279e-34 1.4669285535086e-05 -2.77943641911782e-37 -0)
(-2.31143941721958e-05 0.00113316887448961 1.0723386407395e-18 2.23758770031388e-05 2.94126708579097e-21 -0)
(-2.13512363545213e-05 0.0010927643212343 1.01393059763502e-18 2.00489325720186e-05 2.36433680755139e-21 -0)
(-2.07755513819619e-05 0.00105917464338931 -0 2.00049727866918e-05 -0 -0)
(-2.62469622163552e-05 0.00101550311396431 -1.58819817542128e-23 2.55672579231115e-05 -7.53305782151577e-26 -0)
(-2.94592162871062e-05 0.000957603977246708 9.61643948089699e-25 2.74147115060639e-05 -5.15529709488127e-27 -0)
(-2.98475858130087e-05 0.000892167301990604 1.52077221788562e-23 2.96858789905872e-05 8.19059722107681e-26 -0)
(-2.88102539559295e-05 0.000831098149689994 1.34710898588051e-23 2.80271012328845e-05 8.46593101501686e-26 -0)
(-3.47610714902927e-05 0.000777033849486824 -2.61525524539623e-23 3.16920797048548e-05 -1.77685206284941e-25 -0)
(-3.28919629278859e-05 0.000704019734594209 -7.57504951789943e-19 3.19878531032974e-05 -4.50339706875373e-21 -0)
(-2.84978527211476e-05 0.000644496080932874 -6.95893614656943e-19 2.85886339879966e-05 -3.9225319469991e-21 -0)
(-3.15746181113758e-05 0.000568962328170612 -1.06611104846755e-23 2.80929698927339e-05 -7.97166018625205e-26 -0)
(-3.45669533273498e-05 0.000482779241843621 -0 3.23508276475976e-05 -0 -0)
(-2.92284466972106e-05 0.000405841146896622 3.69119361306795e-24 2.96808357481835e-05 4.07062100755754e-26 -0)
(-2.82511977797614e-05 0.000344612819781866 -3.6800868008336e-24 2.69652905708988e-05 -4.05837249718858e-26 -0)
(-3.27342965885365e-05 0.000265273410358547 -3.67926622713032e-19 3.13355779964232e-05 -4.30143340440607e-21 -0)
(-2.97590707933929e-05 0.00019386256577007 -2.97521077458313e-19 2.87022742538961e-05 -3.80947866228709e-21 -0)
(-2.60256447579212e-05 0.000133418249093874 8.49515624912683e-25 2.44921166100264e-05 1.74402282495005e-26 -0)
(-2.45285250070033e-05 7.61840038394843e-05 -2.00172565680876e-25 2.3899173755794e-05 -8.82783804919805e-28 -0)
(-2.36778057959342e-05 2.6491267394282e-05 -1.93230010116237e-25 2.22973689495405e-05 -1.53950398930008e-28 -0)
(-2.46407056507796e-05 -4.15707743691799e-05 -4.39167670315501e-25 2.33747335542082e-05 -1.59344742092267e-26 -0)
(-2.48380911752662e-05 -8.99676649954457e-05 8.09944510479907e-27 2.36775072572596e-05 4.10672464543543e-27 -0)
(-2.22300898258081e-05 -0.000139333802157107 -8.0206333948477e-27 2.1218250654612e-05 -4.0667641311757e-27 -0)
(-2.14259187577459e-05 -0.000188253900132367 -8.07402414185699e-26 2.07818547319372e-05 3.77572379976771e-27 -0)
(-2.23349293728993e-05 -0.00023382634360482 7.97524840346883e-26 2.10065740932698e-05 -3.72953247067094e-27 -0)
(-2.02768648325496e-05 -0.000277678634547587 6.57387371073699e-25 1.90714386998331e-05 -1.26369644150461e-26 -0)
(-1.72364726120669e-05 -0.000317830876047232 -6.42198479905703e-25 1.62172415595227e-05 1.2344988198701e-26 -0)
(-1.69348176745656e-05 -0.000354268697249308 -0 1.62765378708986e-05 -0 -0)
(-1.70773517005358e-05 -0.000387679645628314 -0 1.58785721324419e-05 -0 -0)
(-1.76364556701244e-05 -0.000421324636024908 -0 1.62197859905228e-05 -0 -0)
(-1.71535265926185e-05 -0.000458101334801136 -0 1.58353164444033e-05 -0 -0)
(-1.3590737615342e-05 -0.000484433370810502 -0 1.29921579967521e-05 -0 -0)
(-1.22455521953194e-05 -0.000505692866833695 -0 1.25007953315796e-05 -0 -0)
(-1.18236583976968e-05 -0.000526619268947558 -0 1.054222392995e-05 -0 -0)
(-9.36803917868702e-06 -0.000540572109969441 6.26755618267979e-24 7.80764500210224e-06 -2.00419119581093e-26 -0)
(-6.41536754016712e-06 -0.000551016175764624 -3.42234190019715e-19 6.48220994300317e-06 7.72509021787668e-22 -0)
(-6.85148919973021e-06 -0.000559429113365205 -6.98025205670773e-19 6.89930219376869e-06 1.78328506296381e-21 -0)
(-7.51825875727195e-06 -0.000575468223222112 -3.63609762448604e-19 6.25883054408736e-06 9.21531627992141e-22 -0)
(-5.53868552132373e-06 -0.000579975282084072 -1.3218401605394e-23 6.00716335359556e-06 3.10610232099064e-26 -0)
(-4.75285336838703e-06 -0.000580544607040874 -1.55148481660987e-25 4.5534722541282e-06 -2.97522941436373e-27 -0)
(-3.75395721375396e-06 -0.000586840663258232 6.65391476506708e-24 3.70555575535324e-06 -1.10403610873634e-26 -0)
(-2.05871872591049e-06 -0.000584853149627508 6.69629324101036e-24 2.09214650118542e-06 -1.94159158794823e-27 -0)
(-2.19052295786876e-07 -0.00058316086988077 -3.62987948671163e-19 2.33434007912069e-07 -5.91887950828791e-23 -0)
(-1.96971980897254e-07 -0.000575883892935581 -3.61882662487884e-19 4.49403027060331e-07 -1.10725581023922e-23 -0)
(-6.69710493164703e-07 -0.000575991116418746 6.43231176623262e-24 -1.33288001758305e-07 9.8677454365437e-28 -0)
(8.64623094887963e-07 -0.000563418530984322 -0 -1.46645885085249e-07 -0 -0)
(2.30737614670531e-06 -0.000547175264843562 1.21323668189568e-23 -1.47187207435643e-06 1.96994072899156e-26 -0)
(4.22903726117641e-06 -0.000528175757724646 -1.1753439606668e-23 -4.08171898600188e-06 -1.9084140574072e-26 -0)
(6.20683559474641e-06 -0.000506924218604195 -1.07783221467138e-23 -5.54363006241623e-06 -3.98030060146146e-26 -0)
(7.9652679406669e-06 -0.000479627050093774 1.04939841836109e-23 -6.93831088333551e-06 3.87529812054174e-26 -0)
(1.03486518606377e-05 -0.000443892175724783 -0 -9.59214054547519e-06 -0 -0)
(1.23906911435065e-05 -0.000419443081105652 -0 -1.14860415615136e-05 -0 -0)
(1.49158791403156e-05 -0.000374154714750182 6.84575542344233e-24 -1.33239391549584e-05 9.47170301681419e-26 -0)
(1.89294289400397e-05 -0.000333436595449871 -1.19904456073051e-23 -1.74679424072342e-05 -2.16552122419693e-25 -0)
(2.08606912374923e-05 -0.00027899858208296 5.22894239023937e-24 -2.30533676650025e-05 1.2160323019381e-25 -0)
(3.04240672694027e-05 -0.000247985324853225 -0 -3.31929893577159e-05 -0 -0)
(6.21131882179209e-05 -0.000263661680437266 -4.52263479754695e-22 -6.10355471776487e-05 -5.17544744594654e-23 -0)
(0.000113503260461331 -0.000296798789971684 -0 -0.000114059391861189 -0 -0)
(0.000186394476314324 -0.000323552709384023 2.32960035047213e-21 -0.000188226176034416 6.39557014032842e-22 -0)
(0.000272957647215932 -0.000339684143640884 -5.61722033613674e-21 -0.000276207129812391 -2.03884419137888e-21 -0)
(0.000371055972847823 -0.000347068740862238 -1.10758504856116e-23 -0.000374560438061134 -5.49470106320076e-24 -0)
(0.000475528539367402 -0.00034016610345642 1.08255104402321e-23 -0.000479716814773264 5.37050800775141e-24 -0)
(0.000579394715355931 -0.000318271435835839 1.36941507702195e-23 -0.000592336414561678 8.78133327117418e-24 -0)
(0.000688483639286297 -0.000307422944649248 -4.61417304830988e-21 -0.000689058041314989 -3.06014902187394e-21 -0)
(0.000766498326354376 -0.000288529419765886 4.57633257300147e-21 -0.000769333649002544 3.18779778779296e-21 -0)
(0.000871195346049812 -0.000283939878293895 -1.01441914868429e-20 -0.000874925239711302 -7.45948423533607e-21 -0)
(0.000901873495419073 -0.000268354435118848 -0 -0.000903303815732121 -0 -0)
(0.000977504540173641 -0.00028014679309363 -0 -0.0009782008081269 -0 -0)
(0.00101918799954578 -0.000283876116325863 5.46439875842143e-21 -0.00101651686820982 4.19902818954321e-21 -0)
(0.0010586892926587 -0.000278502450972221 5.66701303757783e-21 -0.001059753891345 4.42794059387388e-21 -0)
(0.00107601339126424 -0.000261247637356228 5.79757564274881e-21 -0.00107557100639414 4.61584978253143e-21 -0)
(0.00113800982574847 -0.000251720922622773 -6.16924240714609e-21 -0.00112999881292565 -4.93952966232864e-21 -0)
(0.0011459604156219 -0.000229247191682738 -5.9685964039115e-21 -0.00113792895309565 -4.96381449399232e-21 -0)
(0.00127634545930773 -0.000236283703092547 -2.13637394781857e-20 -0.00125710757297504 -1.77714435522988e-20 -0)
(0.00143245604487391 -0.000277539810740176 -0 -0.00140700145920479 -0 -0)
(0.00167313153009673 -0.000396434133504114 -0 -0.00164911379606332 -0 -0)
(0.00187703008924439 -0.000633969196875801 -2.18000732714576e-20 -0.00184580789730343 -1.55591657229206e-20 -0)
(0.00211956244810445 -0.00108242058628789 -2.68607354285395e-20 -0.00211942282666044 -1.66546143638287e-20 -0)
(0.00221039364722471 -0.0018369643094408 3.20057489597057e-20 -0.00220176128239305 1.51671408467936e-20 -0)
(0.00133937043167407 -0.00206311043316533 -5.64183481643012e-21 -0.00136128617046019 -1.70685535020526e-21 -0)
(0.000493582201335363 -0.0015255567823495 -0 -0.000526184446747666 -0 -0)
(9.58967016575273e-05 -0.000727604954431823 -0 -0.000108653182785138 -0 -0)
(2.33164229767333e-05 -0.000503865056889296 -0 -2.35510928781176e-05 -0 -0)
(7.76105350671373e-06 -0.00394795343083785 -0 5.76549180372917e-05 -0 -0)
(-0.000117744160401984 -0.00442714924718227 2.23663993948068e-21 0.000292656810761663 -8.41786995512315e-23 -0)
(-0.000354798036697729 -0.00260369437867977 -0 0.000318041692177767 -0 -0)
(-0.000127171924926579 -0.000498630296594617 6.10686628760524e-19 9.57818276603432e-05 -2.85988427361021e-19 -0)
(0.000157794579080727 9.69001948789798e-05 1.22554586873243e-18 -0.000145437642577595 -5.89293859046928e-19 -0)
(0.000228494741143009 0.00012165369867885 -4.50176401916149e-21 -0.000224216278157131 2.71728130664214e-21 -0)
(0.00017813846044957 6.75996685991512e-05 -0 -0.00017628447548477 -0 -0)
(0.000139493003006406 3.73744106518396e-05 -2.02777467704969e-25 -0.000139391366082183 1.63008122180601e-25 -0)
(0.000120097155483163 2.49234642239868e-05 1.76257644017622e-21 -0.000119351652405096 -1.44762247253746e-21 -0)
(0.000112858675880346 1.98703110478163e-05 -1.60968383725322e-21 -0.000112683388151873 1.35063018919338e-21 -0)
(0.000115152876764654 2.04295407307791e-05 -2.34641946750359e-26 -0.000115092908451271 1.54421335968249e-26 -0)
(0.0001315767032162 2.38241997569366e-05 6.79509847929539e-25 -0.000131408457109252 -5.66008439064646e-25 -0)
(0.000160175723281455 2.87595906287628e-05 -0 -0.000160398967081101 -0 -0)
(0.000203796620282021 3.71162398527861e-05 -1.79636513380865e-21 -0.000204213210910125 1.45532167564126e-21 -0)
(0.000262756092611018 5.05384900123106e-05 -1.36304942963053e-21 -0.000261930351547636 1.12565561385171e-21 -0)
(0.000331779907669641 6.61022385143055e-05 4.63153504238754e-24 -0.000332164185752288 -3.68018483169764e-24 -0)
(0.000393509576767392 8.16145789492636e-05 -4.88155108489138e-24 -0.000392045922458741 3.87884580238725e-24 -0)
(0.000482986044091126 0.000116045718046318 -0 -0.000482915600072255 -0 -0)
(0.000535238480076957 0.000155469081410755 -0 -0.000535792975210382 -0 -0)
(0.000597127964948814 0.000215142664715754 -0 -0.00059529822283361 -0 -0)
(0.00061850373810526 0.00028641342843371 -0 -0.000623525463429066 -0 -0)
(0.000638154308609957 0.000392352886934491 1.75013259200509e-20 -0.000637035544900773 -9.80622346902325e-21 -0)
(0.000631131317154212 0.000512610344202633 1.52347585672145e-20 -0.000634003081983097 -7.26303206308669e-21 -0)
(0.000590973927684464 0.000644715321362565 -4.07288768835034e-23 -0.000593139450221403 1.41983442755057e-23 -0)
(0.000514053136191951 0.000780886607265551 -2.89601244551532e-21 -0.000516384474480237 8.90012072613754e-22 -0)
(0.000405112980938483 0.000907822250375405 -2.3365441556356e-20 -0.000403232782777158 5.0175397292936e-21 -0)
(0.000294107557442713 0.00102951321292531 -1.21036953451154e-20 -0.000284510104075648 1.5658939012132e-21 -0)
(0.000178248059407138 0.00116709087838163 -5.21582928936088e-23 -0.000193596435797733 4.7470607114905e-24 -0)
(0.000129366805461447 0.0013432488518009 -1.62224717233502e-26 -0.000143621357269095 4.24550727544976e-28 -0)
(0.000113051469090783 0.00149593435315748 -0 -0.000109303346013449 -0 -0)
(8.10231028628281e-05 0.00160393115867084 -0 -7.85742877890357e-05 -0 -0)
(5.1054291611142e-05 0.0016497633577982 -0 -5.16458733218793e-05 -0 -0)
(2.94413298705892e-05 0.00170126991952717 -0 -2.89867750829864e-05 -0 -0)
(7.17617840025875e-06 0.00172869066484969 -0 -5.16492517121519e-06 -0 -0)
(-1.67507443856157e-05 0.00172234119469466 -0 1.66379136637755e-05 -0 -0)
(-4.16911960601001e-05 0.00170985012855583 -0 3.87722805832878e-05 -0 -0)
(-6.19624791999774e-05 0.00167364084772417 -0 5.93818996477637e-05 -0 -0)
(-7.05667822629101e-05 0.00158136348837312 -0 6.96831665521997e-05 -0 -0)
(-8.57689683219578e-05 0.00150965558766179 -6.33762517026179e-23 9.17765510031143e-05 -4.19714105685491e-25 -0)
(-9.09433354851532e-05 0.00147403662793786 6.43131702067054e-23 8.6054219373409e-05 4.25918920603995e-25 -0)
(-8.87922526581145e-05 0.00134681357365553 -5.93804525668854e-23 8.65382116853274e-05 -4.52911220258926e-25 -0)
(-0.000103825753450162 0.00130143045964673 6.04069460370424e-23 0.000102598088548014 4.6074057133423e-25 -0)
(-0.000116656836587521 0.00118226862483746 -0 0.000112959104434621 -0 -0)
(-0.000119053571583552 0.00111306603359558 -0 0.000119949113926769 -0 -0)
(-0.000120141511105444 0.000972377295912839 -4.74148793405785e-23 0.000115139736379547 -5.97498785845197e-25 -0)