/*--------------------------------*- C++ -*----------------------------------*\
  =========                 |
  \\      /  F ield         | OpenFOAM: The Open Source CFD Toolbox
   \\    /   O peration     | Website:  https://openfoam.org
    \\  /    A nd           | Version:  7
     \\/     M anipulation  |
\*---------------------------------------------------------------------------*/
FoamFile
{
    version     2.0;
    format      ascii;
    class       volSymmTensorField;
    location    "2000";
    object      bijDelta;
}
// * * * * * * * * * * * * * * * * * * * * * * * * * * * * * * * * * * * * * //

dimensions      [0 0 0 0 0 0 0];

internalField   nonuniform List<symmTensor> 
15600
(
(0.275490635758249 -0.00437007461104752 1.00276709428653e-25 -0.331591592733355 -2.83386424053465e-27 0.0560699228579804)
(0.268843903004456 -0.0228725356383398 1.12773004336929e-21 -0.330997458244362 -4.35535630546382e-23 0.062060467859507)
(0.219094432709235 -0.0777768576041875 0 -0.321497937736315 0 0.102497687452954)
(0.159914118681532 -0.158022469061957 2.17827536632727e-25 -0.281297688729082 -9.52629641576957e-26 0.12143301676652)
(0.124362068885613 -0.238637646789645 -7.24085836080245e-26 -0.207487874865038 1.12977551729073e-26 0.0831427545292816)
(0.0840206485632868 -0.274647784940354 5.92766885530418e-21 -0.15135789541108 -3.71545718658761e-21 0.067331428317791)
(0.0536318424163339 -0.285659118599735 1.10893531924662e-25 -0.121509055775478 -7.98157583316402e-26 0.0678608882837834)
(0.0277978789231152 -0.295136790803414 3.42043253506128e-21 -0.0914122448129085 -2.73270357673618e-21 0.063612436140882)
(0.00946017941849539 -0.290277977297973 -8.4376653941473e-19 -0.0868293774236132 7.05705031463456e-19 0.0773640726043673)
(0.00654866497965371 -0.288222832677397 -8.19579615940506e-19 -0.0882732230274735 6.89353430685375e-19 0.08171749432209)
(0.00607459979375437 -0.285778416993501 2.26343762254895e-25 -0.0921468052364495 -1.83584502958112e-25 0.0860751327727693)
(0.0136019707129501 -0.282736365588018 -5.3567039498574e-25 -0.102407888721561 4.44318159643924e-25 0.0888050389142999)
(0.0180888471201655 -0.280250869871382 8.30517990465542e-25 -0.107808287497954 -6.6333237180956e-25 0.0897227255304801)
(0.026669593933728 -0.282176429145875 1.3402714142084e-24 -0.109898130091152 -1.04151491330625e-24 0.0832359451149621)
(0.0321225271573699 -0.283341656158826 -7.41580422689834e-21 -0.112367977495613 5.84401869138359e-21 0.0802509568444163)
(0.033944836668173 -0.285940084808806 -3.96921962398336e-24 -0.110189002062381 3.07406579331661e-24 0.0762573458260942)
(0.0338127855721699 -0.283094144199653 -1.30112888241838e-20 -0.114510007825103 1.01492466721566e-20 0.0807081402248476)
(0.039229867621041 -0.278033018051307 1.71078099572572e-20 -0.124138247568459 -1.29919781327688e-20 0.0849063712375715)
(0.0444560495131249 -0.27049270628591 2.01223694716337e-23 -0.13790322559617 -1.39974878321638e-23 0.093437473154484)
(0.0498061449243619 -0.255027354506977 -4.60338239370579e-23 -0.160176542863284 3.06830906985787e-23 0.110356748957301)
(0.0574339772303766 -0.237211771831434 3.12625315358373e-20 -0.185594798610321 -1.96853525804619e-20 0.128155511152762)
(0.0763627237966206 -0.219829144747758 -3.6937917246503e-20 -0.211307071916763 2.03793287748661e-20 0.134875721127648)
(0.0921608852482918 -0.195529227309442 -4.17280581218938e-24 -0.239203330660301 -1.46763594709727e-24 0.146981482472752)
(0.113380227691916 -0.169740602573594 4.61768712155015e-23 -0.264324207838605 -1.943813256896e-23 0.150869671418416)
(0.131555249644372 -0.138719316694259 0 -0.28759793016026 0 0.155967753272252)
(0.149122170414913 -0.101779911300927 0 -0.307243169839842 0 0.15804266264789)
(0.157020591257421 -0.0644260063801145 -3.76398938620875e-18 -0.321830715298657 4.77620173785607e-19 0.164768061082735)
(0.165335222562518 -0.0201797138382358 -4.09324592137497e-18 -0.329345791469538 1.84900566392926e-19 0.164061107424105)
(0.187870871632667 -0.00792478456768288 1.54236595557348e-26 -0.330305269834546 -2.25286848215739e-28 0.142547161834898)
(0.183301096930183 -0.0086574959016156 5.34022303649908e-34 -0.330389314410141 -4.54258072704781e-36 0.147101446700831)
(0.178622859166094 -0.0100632177920353 0 -0.330998053438063 0 0.152381816343511)
(0.169740314881168 -0.010866466723292 -7.43719325052661e-18 -0.330943991681099 2.88381003063265e-20 0.161207828824868)
(0.157185824028581 -0.0112473995504353 -7.79253350792284e-18 -0.331134559449929 2.01661302410615e-20 0.173953159341467)
(0.140962723520037 -0.0116933422267176 0 -0.33103658077485 0 0.190078181228954)
(0.131999062807069 -0.0119100585243928 0 -0.331002144419245 0 0.198999114108338)
(0.122539847573418 -0.0122664571247079 0 -0.331153964950544 0 0.208596444081751)
(0.124040585615684 -0.0123255010897647 0 -0.331518786534065 0 0.207470699248795)
(0.121909629851341 -0.0121928539569628 -5.32817125177362e-23 -0.330840142703444 -4.17468662331237e-26 0.208921118836617)
(0.119303898009051 -0.0119897745331115 7.19404070390375e-18 -0.33159773924214 1.97443941930897e-20 0.212269538667637)
(0.124084607943458 -0.0114642951807968 6.87376052414152e-18 -0.33154188507873 1.60473484749592e-20 0.207457940166538)
(0.118998293981354 -0.0111930035772211 -4.96833830670579e-23 -0.33115613088308 -4.07753542557047e-26 0.212153643551558)
(0.113391111933265 -0.0107906037508061 -4.56396118994531e-23 -0.331438857599183 -6.43587925467794e-26 0.218031380665162)
(0.111524401798204 -0.0104856006858811 4.56396118986118e-23 -0.331292837327877 6.43587925455929e-26 0.219751219487114)
(0.11267264817876 -0.00988968017979915 -4.10293924057909e-23 -0.331707613547397 -6.49213106329629e-26 0.219011193720794)
(0.115289481160006 -0.00942498711439625 4.10293924054956e-23 -0.331814439880448 6.49213106312314e-26 0.216520753775722)
(0.113704500280249 -0.00903796544478813 0 -0.331362588550559 0 0.217645321989933)
(0.115899343248341 -0.00830624008150676 -4.65553180122256e-18 -0.331817024247485 -2.76793958808893e-20 0.21590761944582)
(0.11798118683117 -0.00763473971578131 -4.29481188061016e-18 -0.331591972422848 -2.42158630617347e-20 0.213604461893801)
(0.116678601435801 -0.00729052372728383 -2.88837595801535e-23 -0.331198952524873 -7.43377958307368e-26 0.214495515040166)
(0.115040026697147 -0.00671371947029929 1.39408367634443e-23 -0.332008406869857 3.80698133371191e-26 0.216946271824786)
(0.115773314473774 -0.00598668994350071 -1.11646569514443e-23 -0.331824029323549 -3.49844139444793e-26 0.216046197894896)
(0.115293261577772 -0.00565233414941059 2.12005997804363e-23 -0.331650608401897 7.13257144243281e-26 0.216341364584359)
(0.113514472310579 -0.00510294756912234 -2.33198164924024e-18 -0.332035015248031 -2.72577520047287e-20 0.218496631498841)
(0.121356309727804 -0.00450027256455736 -1.9241585345247e-18 -0.332059633937429 -2.46339971514227e-20 0.210694144402572)
(0.126779086595691 -0.0039977888418706 -3.70369853824834e-24 -0.331995992857678 -1.57560880749917e-26 0.205211498770936)
(0.125579651411009 -0.00357175836962575 0 -0.331868247703539 0 0.206281788828128)
(0.128225516108376 -0.00347072129285021 1.68201829577974e-34 -0.331700687144389 3.31773233017114e-36 0.203459870934271)
(0.126995040840577 -0.00271722043335714 -7.85361062023181e-25 -0.331894016405501 -8.17877942649043e-27 0.204881384773585)
(0.126944784028542 -0.00241723891506115 1.02301686768858e-24 -0.331721631856805 1.2246649048373e-26 0.204767846624804)
(0.126529435557835 -0.00213631544400595 -2.37655805658006e-25 -0.331717441830951 -4.06786962178699e-27 0.205180685720267)
(0.129448975557323 -0.00176198805537423 0 -0.331749642347044 0 0.202294533166956)
(0.132054143227582 -0.00185119631694885 -3.22302373850621e-25 -0.33091686854638 8.40572820461711e-27 0.198851677176634)
(0.130807510019892 -0.00123538025899811 3.22302373848725e-25 -0.331437420055464 -8.40572820456765e-27 0.20061101911565)
(0.128122481113459 -0.000401887202026761 -1.853502737511e-34 -0.331956752528633 2.61964870674877e-36 0.203822111916987)
(0.139452737440816 -0.000746675849658441 0 -0.331472979730586 0 0.192015490587409)
(0.145377779871734 -0.00117634165447104 2.33146456364588e-24 -0.330209330821846 -1.78600023569149e-26 0.18482426688438)
(0.147032845078177 -0.00112811102473722 -2.33146456365408e-24 -0.330094345891183 1.78600023569777e-26 0.183051494951144)
(0.14857460425837 -0.0014640795274561 0 -0.329168136416543 0 0.18056995293898)
(0.132850041938916 0.00116116880086178 0 -0.332044626504371 0 0.199181955546515)
(0.138172751289527 0.000667378990253491 0 -0.33144827270482 0 0.193267474838475)
(0.148263158458428 -0.00101044046180206 0 -0.329329015271382 0 0.18105552554115)
(0.154767725700452 -0.00128878261877369 0 -0.329080899990566 0 0.174303861990711)
(0.140216450258508 0.00179742645217518 -2.91703761397346e-18 -0.332031018869155 6.58792115706542e-21 0.1918096769946)
(0.155427146272595 0.000441480088971148 -6.00286462326097e-18 -0.330843891690373 1.53383365567419e-20 0.175411283687735)
(0.164499607893642 -0.00124535297763144 -3.12834020847476e-18 -0.32872724700174 7.92792822534239e-21 0.164217781615839)
(0.144225718467617 0.00221483108369235 3.93781228886215e-23 -0.332021132384169 -4.92916247428305e-26 0.187792250701776)
(0.157971208163051 0.000120332830699978 -2.00383786565282e-23 -0.330307516347689 2.05721710041e-26 0.172334766568611)
(0.162521348423666 -0.000734318298940991 2.10364646479966e-23 -0.329465517424354 -1.19368599326891e-26 0.166939039601793)
(0.152038171486722 0.000659808060864336 -2.10364646483851e-23 -0.330879632243452 1.19368599329095e-26 0.178836701674057)
(0.165723011694159 -0.00183022990914968 -3.46771112132492e-18 -0.328056805861149 -5.63093371178598e-22 0.162335745283687)
(0.158381390857489 -0.000249860097777759 -3.44242223789012e-18 -0.33034353820603 -1.02998230044752e-22 0.171957047889514)
(0.146375145456969 0.00213433394032134 2.09568347403189e-23 -0.331967733082221 2.19741066707091e-27 0.185595023045009)
(0.166564461822443 -0.00145323292243289 -2.10988070683108e-23 -0.328866000799953 -8.24968051907168e-27 0.162309593979501)
(0.161418628581068 -0.00121397004080462 4.18770586190585e-23 -0.329215095410305 2.87054714652045e-26 0.167797099153375)
(0.147313505310877 3.81780457395155e-05 -2.07782515507622e-23 -0.330584347799312 -2.0455790946166e-26 0.183273834074131)
(0.141523211435205 0.000221972095445354 3.81454451619443e-23 -0.330852175796167 8.26077562027462e-26 0.189336325785666)
(0.137900190606877 -0.000569232473792646 -7.48042583901908e-23 -0.330358024807439 -2.17704513775163e-25 0.192477735159494)
(0.141310217723619 -0.00338947482096079 3.66588132270307e-23 -0.327831798325773 1.35096757569289e-25 0.18653428513297)
(0.116630781548925 -0.000706597680926307 2.91826845262788e-23 -0.330625553484057 1.83048955402677e-25 0.21401093037063)
(0.1101524698954 -0.00265182697046781 -5.37445169670889e-23 -0.328803827138812 -3.98139320147663e-25 0.218672366018939)
(0.0825513703261309 -0.00142528575584548 2.45618324408101e-23 -0.330701774737712 2.15090364744985e-25 0.248157846456621)
(0.0631738644052774 -0.00175921800213432 0 -0.330391199002096 0 0.267280591554572)
(0.0263111481672467 0.0049123736426473 0 -0.32942128247799 0 0.30315122427901)
(0.000446360572648092 0.0346480987785554 2.87400772775247e-21 -0.326052754256208 3.12381906450662e-22 0.325572046180647)
(-0.00885405683236158 0.0621011496082281 2.36974645549425e-23 -0.317666979069809 4.86280831892188e-24 0.326475397845199)
(-0.0230351006347307 0.0877679551837739 5.73064827841878e-24 -0.304754664357804 3.11294358041055e-24 0.327723420243337)
(-0.0390252052163469 0.108612534511807 -4.36456830085674e-23 -0.289479637388491 -1.63112473991448e-23 0.328432293920302)
(-0.0561802506101512 0.125751620708698 2.34668344170239e-23 -0.272534753219229 9.63966752608049e-24 0.328628076962186)
(-0.0742208471957503 0.138541987246294 0 -0.255625473690424 0 0.32973956712868)
(-0.0909929022339418 0.148070664539376 0 -0.239700207616516 0 0.330646171640843)
(-0.0978682365644066 0.158200337119361 -3.48877122949754e-20 -0.224025099024572 -2.31399719007171e-20 0.321810922309602)
(-0.101834394800671 0.166684667931469 -3.68084837488957e-20 -0.210616063301338 -2.60484933147432e-20 0.312376150047053)
(-0.109243673142254 0.170521148513608 0 -0.202088213822927 0 0.311286659798036)
(-0.115425748453266 0.171876604979424 0 -0.197018057922749 0 0.312425018366662)
(-0.118555839496461 0.172526493346936 0 -0.194558015391142 0 0.313104853916107)
(-0.123206346363103 0.167693362210335 4.41223955657826e-20 -0.198537725918255 3.39051359466342e-20 0.321694516279783)
(-0.130994151349208 0.162590839534301 4.59779988308205e-20 -0.200756602453978 3.5925071302658e-20 0.331734340355174)
(-0.139556032497009 0.159280291710336 4.76807378397409e-20 -0.200835682447535 3.79619235608896e-20 0.340370318457786)
(-0.142800099346635 0.16230631331977 4.79185068912127e-20 -0.195053112656365 3.87815316285683e-20 0.337781644991668)
(-0.149205477066559 0.161998005241047 -4.85579692529336e-20 -0.190854293972781 -4.03834312678262e-20 0.340063258333497)
(-0.152320369600585 0.160844735999005 -5.39533034281902e-20 -0.190501068219683 -4.50650982030126e-20 0.342655445418912)
(-0.138913856154068 0.172625846577214 0 -0.180198891376058 0 0.318988027813559)
(-0.114091979713623 0.187175960279641 9.75812589493497e-25 -0.173738375911041 7.48640435975802e-25 0.287806318390312)
(-0.0857741696373068 0.191123277076165 -2.12123437413075e-24 -0.185952985859137 -1.53737273666739e-24 0.271533095058654)
(-0.026381265532986 0.211030798588585 1.16731989790197e-24 -0.188691661748443 8.05087031463618e-25 0.215070698625513)
(0.0767826688363165 0.223334509880161 0 -0.212571402054664 0 0.135964923824366)
(0.236028852222537 0.191806823368196 -4.92684323801415e-20 -0.26903314885348 -1.49054501133872e-20 0.0335036679582304)
(0.328410783992983 0.100635039934626 0 -0.317670585326678 0 -0.0102775719489076)
(0.279837565622902 0.022988583589182 0 -0.331544663218509 0 0.0518620959916249)
(0.281493582312886 -0.00414489661058562 0 -0.331621413299254 0 0.0501574096237206)
(0.305094860670613 0.00249623641924145 0 -0.326900435733005 0 0.0215233458945535)
(0.299778558665567 -0.0117674936318869 8.57107461638678e-21 -0.327626165756198 -3.18149165095304e-22 0.0270284655435089)
(0.266768663145352 -0.0694267275358249 1.06646896209295e-24 -0.319121504776813 5.05381263859251e-25 0.052759449212098)
(0.159611467348466 -0.141377039401685 7.91208669130087e-18 -0.284401639242077 -3.70559131130167e-18 0.124973167082262)
(0.0712709062782707 -0.205308201321073 2.00043510021464e-17 -0.214828673056429 -9.61968970989215e-18 0.1435373871111)
(0.0121720025556962 -0.225887729514514 -2.21347917475954e-20 -0.164407727770881 1.38740283312508e-20 0.152207407491045)
(-0.00302666917152949 -0.241853224804546 -2.25399431865414e-25 -0.139621404554645 8.73053114696474e-26 0.1425885535132)
(-0.0119436845372877 -0.260398210149052 -1.24336771351407e-20 -0.111234934017538 9.93366008969964e-21 0.12316471933201)
(-0.0191750370464206 -0.263925402336612 3.08892420369709e-18 -0.102606139656907 -2.58352507678271e-18 0.12176238566577)
(-0.0151279409814756 -0.268604739777258 2.99035884564965e-18 -0.0994051281613962 -2.51524233363098e-18 0.114508879784294)
(-0.00879300728990383 -0.27186751116613 -8.9548891835498e-24 -0.0993334104360471 7.52052150656524e-24 0.108128356360512)
(0.00149487568222033 -0.272926502771003 1.09909685394584e-23 -0.105362012530582 -8.99112837413604e-24 0.103865636028824)
(0.0100263781901522 -0.276410553671384 -1.16444937748465e-23 -0.105755287845682 9.52574270462176e-24 0.0957377563968991)
(0.0210029385813274 -0.280942440131809 -4.84937527225711e-20 -0.105666089406448 3.92865549507788e-20 0.0846702922117047)
(0.0293706862666499 -0.283741289812462 9.38801238093693e-20 -0.106030418295355 -7.45510389022205e-20 0.0766304175803479)
(0.0352531147570422 -0.289217790699513 -5.41919501950111e-23 -0.101226295140687 4.27492154176624e-23 0.0659699177161183)
(0.0372491823620729 -0.290209390262722 4.95434073066594e-20 -0.100809894001333 -3.86441961241414e-20 0.0635532580110457)
(0.0397920504295792 -0.28660303188687 -6.52459402316738e-20 -0.107064566501504 4.95467050195473e-20 0.0672480388353207)
(0.0449187374280666 -0.278237664103237 2.30675956022563e-22 -0.120668703428549 -1.71773870211134e-22 0.0757191733590954)
(0.0495359494714109 -0.266096997571525 -3.2101340466625e-22 -0.139743581948382 2.11650553222888e-22 0.0901529460212277)
(0.0563498706517687 -0.25225342431702 -1.15165829803703e-19 -0.160456058778748 7.25128532118605e-20 0.104331736982575)
(0.0721248027170329 -0.230385840678446 1.37431173888807e-19 -0.191500983553722 -7.58277762376637e-20 0.119392998871581)
(0.0897675046723648 -0.206958940582655 2.86324049957229e-19 -0.219973375013883 -1.365083944946e-19 0.130275376812767)
(0.110231001172873 -0.181331516262327 -4.82489825714201e-22 -0.246165507045057 2.08593256426952e-22 0.136001374170879)
(0.129580723429522 -0.149986630022882 1.63189123848378e-19 -0.270737142254622 -4.96084468970818e-20 0.141186219331861)
(0.147436035027381 -0.114744686134252 -1.67104334291271e-19 -0.292102011766075 3.5821127523078e-20 0.144684958008624)
(0.16150601528652 -0.0753776170930184 1.36539798771019e-17 -0.307383769523441 -1.7224012566849e-18 0.145754038846584)
(0.175518246498976 -0.0359163526447706 1.39718959593379e-17 -0.315700507613644 -6.21967289208787e-19 0.140400400369551)
(0.185089246622127 -0.0255926199110811 -1.48098440979807e-25 -0.317672629038347 2.8696866401787e-27 0.13277419698391)
(0.175203010781435 -0.0270733481825564 -1.86004572591082e-33 -0.318191215009728 1.58222003242197e-35 0.142899062656373)
(0.164160067783578 -0.0288156160268212 0 -0.318584898222132 0 0.154329873014183)
(0.153801067894674 -0.0293014531131079 2.63684570795391e-17 -0.319641135936211 -1.02005456404329e-19 0.16578229195383)
(0.140245196610716 -0.0296297926662538 2.6972573434239e-17 -0.319605495379731 -6.95471478686237e-20 0.17937095761347)
(0.124861316387647 -0.0306757245631787 1.83459316346114e-21 -0.319808949966803 -2.92216564783525e-24 0.194916350628911)
(0.11764286099366 -0.0307104310217472 -9.24303469344446e-22 -0.320333819568093 8.26209243801191e-25 0.202668364290943)
(0.108920761298255 -0.0307421327272112 -9.12813543620009e-22 -0.320616312820578 -1.05413488841273e-24 0.211700825511739)
(0.109122989160122 -0.0301027130944871 9.11582184176175e-22 -0.321050667149128 1.05271289050418e-24 0.21187699332051)
(0.109867434768282 -0.0289148992825537 4.55791217284019e-33 -0.321757297039518 6.83145109660978e-36 0.211854294098559)
(0.107197673065677 -0.0279871382342339 -2.56379459580936e-17 -0.322104998516048 -7.03211128732861e-20 0.214924982245109)
(0.11192013917515 -0.0269535348569723 -2.39993153127452e-17 -0.321854179845273 -5.59628683484909e-20 0.209964865658719)
(0.110291061154208 -0.0253552584520708 0 -0.32257000915016 0 0.212296774361791)
(0.105177355153354 -0.0249760757198502 3.67187251492826e-22 -0.322194104703743 1.74162320523079e-24 0.217032464135327)
(0.107122345944882 -0.0236047500219473 -2.18970701761983e-23 -0.322915981706476 1.1738846013643e-25 0.21584019006556)
(0.108661634910301 -0.0224723036555926 -3.46106660623875e-22 -0.32269416555938 -1.86406630747334e-24 0.214036210872038)
(0.113314797882133 -0.0208527636756995 -3.01411420968671e-22 -0.323426020682978 -1.89422557774053e-24 0.210128745598003)
(0.113758127255225 -0.0197584515194842 5.79817367785117e-22 -0.323540368598719 3.93938483763107e-24 0.209850282684465)
(0.116692079269444 -0.0186616911232076 1.66515799836153e-17 -0.323513660105234 9.89943053324435e-20 0.206841455104629)
(0.119560574541502 -0.0165081368598589 1.51091696693185e-17 -0.324005858884302 8.51656050181584e-20 0.204443313309391)
(0.12105430453477 -0.0150775495711636 2.33281120107383e-22 -0.324137134134364 1.74431905572819e-24 0.203159013295226)
(0.119790987586833 -0.0138714124091596 0 -0.323981768981846 0 0.204239796616653)
(0.121367949358957 -0.0124687154200054 -8.29276007406223e-23 -0.324094162537035 -9.14519445650404e-25 0.20271604965307)
(0.122560541777525 -0.0111666900989627 8.27429201979969e-23 -0.324386690078148 9.12482802287586e-25 0.201855060585393)
(0.124565127466105 -0.0100304636840453 8.34983015459724e-18 -0.324602586464259 9.76179382814462e-20 0.200069201910891)
(0.132259201769276 -0.00884688113801374 6.83581510198283e-18 -0.324708867481757 8.75262082028194e-20 0.192473946566148)
(0.138116922447454 -0.0073972298699538 -1.96921244566771e-23 -0.324749668760799 -4.04271722815364e-25 0.186668294131726)
(0.137377153745159 -0.00616363720833748 4.69237636709687e-24 -0.324757736882285 2.0693914020493e-26 0.187395336172477)
(0.140437864510086 -0.0056224606734716 4.56324378889121e-24 -0.324833621294641 3.63563196675344e-27 0.184428356637247)
(0.141080922918958 -0.00368872324843346 1.05371954234792e-23 -0.324859019055936 3.82324747612655e-25 0.183808471313213)
(0.140105237253069 -0.00277682536512679 -1.97520235780932e-25 -0.324901440745998 -1.00150221374195e-25 0.184824506519391)
(0.142183205134533 -0.00206288514773168 1.97521565411305e-25 -0.324893225053064 1.00150895547025e-25 0.182734938157179)
(0.144281512675872 -0.000949753320639916 2.00824204688828e-24 -0.32499852640099 -9.39131114659554e-26 0.180733033450038)
(0.142709607006932 0.000144655908413745 -2.01608923746699e-24 -0.324986585064068 9.42800762372861e-26 0.182310557986529)
(0.145412234096178 0.00103516069945786 -1.69510420500192e-23 -0.325130791410522 3.2585006133321e-25 0.179749639793203)
(0.148645688522712 0.00192777638960674 1.69343212004877e-23 -0.32504956032266 -3.25528636261687e-25 0.176430748204303)
(0.154659740228689 0.0026756062573043 0 -0.325093692233648 0 0.17045151318667)
(0.155089345431093 0.00363476593255921 0 -0.324924101569225 0 0.169867214883176)
(0.156727693627484 0.00434582148477435 0 -0.324937363034973 0 0.168248487513785)
(0.155005126494402 0.00534706235718325 0 -0.325020774720576 0 0.170052339606936)
(0.15704013738066 0.00613949329320639 0 -0.325180124402086 0 0.168157077955635)
(0.156642992036612 0.00696815152025313 0 -0.324942721278804 0 0.168292218159506)
(0.157955936231827 0.00751647803519819 0 -0.324819058417793 0 0.166901736061799)
(0.163782352983585 0.00791657351199716 -1.91507388961573e-22 -0.325225719503651 6.12387686208848e-25 0.161491044914291)
(0.167494898343772 0.00822989133446926 1.06299091590136e-17 -0.325204005949936 -2.39943902906029e-20 0.157707031458629)
(0.170383851579243 0.00891806034509721 2.21882753407108e-17 -0.324832345863213 -5.66856607276735e-20 0.154446974442182)
(0.170981780803702 0.00949794832571951 1.16762304031632e-17 -0.32511097369146 -2.95922077003069e-20 0.154169635624758)
(0.172617427545533 0.00976191344485319 4.31633995200112e-22 -0.325153496326632 -1.01426737841165e-24 0.152520771095007)
(0.171018792849929 0.00996711950399801 5.2137839402572e-24 -0.324645037289956 9.99829529307673e-26 0.153632944667064)
(0.17304139354938 0.0101538146649141 -2.25802955234752e-22 -0.324983797598861 3.74658565431787e-25 0.151944046570122)
(0.171376992600786 0.0102445536047304 -2.32628263629784e-22 -0.324698880027481 6.74506123800583e-26 0.153320726150592)
(0.173339102432455 0.0103855428400614 1.27739245442101e-17 -0.324949078487427 2.08291543843057e-21 0.15160946994752)
(0.174609345359983 0.0100791302171573 1.29746780448052e-17 -0.324507938184892 3.9698745312439e-22 0.149889542345592)
(0.17705756533337 0.0103476570050698 -2.32087669544611e-22 -0.325006645046417 -3.56043383041467e-26 0.147978053129776)
(0.174243406912308 0.0106858811412638 0 -0.324942054750562 0 0.150672106492155)
(0.170220082110205 0.0106019081180726 -4.63578848678705e-22 -0.324528433508438 -7.52716158964373e-25 0.154276426711014)
(0.165545224758516 0.0101415172678101 4.62236116324983e-22 -0.324307424056494 7.50535955224079e-25 0.158756405604416)
(0.161033675133579 0.00971623090964762 4.34179720225797e-22 -0.32420934468615 1.60337182173017e-24 0.163148953855215)
(0.153957283033759 0.00920678917657806 -4.34731149393694e-22 -0.323985426967994 -1.60540818121058e-24 0.169985600490858)
(0.146995108515286 0.00795439902947511 0 -0.323937743263317 0 0.176910560061642)
(0.135403138217816 0.00774615534786612 0 -0.323845973763834 0 0.188403824406885)
(0.117880394007879 0.00649980994860387 -3.04277619515484e-22 -0.323171929376271 -4.20994772446114e-24 0.205220777405363)
(0.097083782285709 0.00510033391500101 5.4634652574493e-22 -0.322922480829748 9.86723126074721e-24 0.225772105682041)
(0.070752019688639 0.00359454155342685 -2.41335945152689e-22 -0.322396052384217 -5.61246009273772e-24 0.251745233205845)
(0.0274379652308835 0.010867465970591 0 -0.321551369109779 0 0.294232584236031)
(-0.00450257320873919 0.0375319361539531 1.7212079514366e-20 -0.31832346590546 1.96965302195903e-21 0.322785026642259)
(-0.0198905249112224 0.0642618374566747 0 -0.310258440138492 0 0.330167842472681)
(-0.036877118848047 0.0882105233412305 -7.48741530884143e-20 -0.296801486770928 -2.05555814617556e-20 0.333737477075286)
(-0.053772215723796 0.109141052821274 1.72877811647217e-19 -0.280927174170403 6.27482813568312e-20 0.334799397265576)
(-0.0735147503384709 0.125980334557099 3.33162193518714e-22 -0.263098622887008 1.65280911052718e-22 0.336718787732391)
(-0.0924710057492781 0.138759288952296 -3.22140046822748e-22 -0.244990727143376 -1.59812852302038e-22 0.337586365467054)
(-0.106996003185993 0.152032978497309 -4.07642617454854e-22 -0.224162593582736 -2.61399610641753e-22 0.331543840675202)
(-0.11690903080217 0.159477644082521 1.37427587169126e-19 -0.209896150391566 9.11428531290433e-20 0.326822289066379)
(-0.126320703623802 0.164976670905528 -1.3958778911397e-19 -0.196838579727931 -9.72345515196197e-20 0.323245766668575)
(-0.133390106278769 0.169852442124537 3.1139160151978e-19 -0.186248551046123 2.28980372222425e-19 0.319753152162875)
(-0.13821596500848 0.172179430483093 0 -0.180030379423426 0 0.318292361064715)
(-0.14368311267273 0.171784117871714 0 -0.177520427120795 0 0.32122611642287)
(-0.150471578738702 0.168399989112482 -1.79837257149168e-19 -0.178552462322916 -1.38193010006033e-19 0.328936132225864)
(-0.157989494475598 0.166394509148715 -1.86653737490601e-19 -0.176965531610422 -1.4584255510839e-19 0.334990090646911)
(-0.165804785402106 0.163170054277073 -1.92233689287926e-19 -0.176556145463972 -1.53050496892556e-19 0.342346262445879)
(-0.168487516591222 0.164298270182182 2.02754776771119e-19 -0.17219226227055 1.62339744160429e-19 0.340416493516602)
(-0.175786296357993 0.160531260092574 1.90864078557838e-19 -0.172208298224831 1.58733111675469e-19 0.347737764066769)
(-0.177205327519376 0.158974659459286 6.20517736972014e-19 -0.172839957701802 5.16178169419188e-19 0.349486513677298)
(-0.176632827796867 0.162134642965215 0 -0.168069323701951 0 0.34399287015775)
(-0.168377141649708 0.167938964477594 0 -0.165881117823581 0 0.333616487983756)
(-0.154149552813742 0.168591156689246 5.54626246439276e-19 -0.177406775857344 3.95848287993076e-19 0.330761989729827)
(-0.127161393639192 0.182544802211348 6.99094109436416e-19 -0.180568050551846 4.33463291713039e-19 0.307725810317002)
(-0.0242937248971977 0.221757130857463 -8.82699054986292e-19 -0.189944005607153 -4.18300503111608e-19 0.213999655142053)
(0.176633189056568 0.218188464390948 1.74263289592461e-19 -0.246139232233438 5.27208324708567e-20 0.0701829698964537)
(0.348073024701707 0.142954434839151 0 -0.302765155192127 0 -0.0442187840867366)
(0.375399336554758 0.0533191145415803 0 -0.325944996755878 0 -0.0488944336569721)
(0.339161176548657 0.00957681400837708 0 -0.327193365153332 0 -0.0119582811594976)
(0.349911728362838 0.0335244160563133 0 -0.32180048108711 0 -0.029104498249637)
(0.336396082183736 0.0194788633537519 -3.06062480844756e-20 -0.324006947104845 1.15190385203071e-21 -0.0147826450379705)
(0.326696125920449 -0.039749976187054 0 -0.317449264789437 0 -0.00857779295663055)
(0.201405286760334 -0.12436606012856 -1.87604560799868e-17 -0.283983899060097 8.78564074962723e-18 0.0835429244582025)
(0.0556852493975011 -0.189059235806685 -4.6557991651506e-17 -0.217237429270993 2.23870352548842e-17 0.161082744855816)
(0.00804010700666235 -0.221239222850426 1.81991576751569e-19 -0.163158233743572 -1.09850784574327e-19 0.15494516248966)
(-0.0156539930881958 -0.232580569131475 0 -0.136275382387663 0 0.15184549134749)
(-0.0259631534674898 -0.24767805496419 1.00370560520214e-23 -0.113353303868542 -8.06855750680307e-24 0.139311426523107)
(-0.0341468811974527 -0.249814367975323 -9.48584298903299e-20 -0.105608848604025 7.79082209933159e-20 0.139715608278319)
(-0.0317720844823853 -0.254199098387665 9.2255894596801e-20 -0.101228399101341 -7.7408739213103e-20 0.132990437308907)
(-0.0215272017605944 -0.260037376820911 1.42946476255729e-24 -0.10033330191483 -9.40751904809596e-25 0.121856850339265)
(-0.0100607845061582 -0.26452534935478 -4.24642294377576e-23 -0.102624983196095 3.53712492812031e-23 0.112675253592253)
(0.00126495652420568 -0.271099316098262 0 -0.0998930093183993 0 0.0986421152131026)
(0.0140422820569492 -0.278447042458152 1.13013187380511e-19 -0.096493795222311 -9.15574112037312e-20 0.0824777217761998)
(0.0242406391242207 -0.284284285722116 8.41695279296243e-20 -0.0933271902726757 -6.95102463414784e-20 0.0690355608952872)
(0.0307037457681348 -0.291110874997464 -2.75204720853169e-22 -0.0863234918934495 2.18675715508204e-22 0.0556425798384351)
(0.0342372162717105 -0.293098913956773 2.83663348169869e-22 -0.0851429257737611 -2.25396880664682e-22 0.0508206576251912)
(0.0353061275675862 -0.289618007042587 0 -0.0899583118094229 0 0.0546483746555433)
(0.0379478267026358 -0.279727657051908 0 -0.104157559574288 0 0.0662385762568277)
(0.0438816192260645 -0.268123022011955 0 -0.122627764245395 0 0.0786562528410784)
(0.0493558040126095 -0.252659381364764 0 -0.144517349464279 0 0.0953948147676774)
(0.0645639044918961 -0.231031296774011 -7.65415915789441e-19 -0.175136843879674 4.28872620924056e-19 0.110524010549304)
(0.0821706277132391 -0.208381546341383 -6.29720554324436e-19 -0.202839131615445 3.00213525318724e-19 0.120787206757388)
(0.101619670021124 -0.183345385279414 1.5908798287706e-21 -0.228539591209308 -5.54590777802455e-22 0.12700450702473)