/*--------------------------------*- C++ -*----------------------------------*\
  =========                 |
  \\      /  F ield         | OpenFOAM: The Open Source CFD Toolbox
   \\    /   O peration     | Website:  https://openfoam.org
    \\  /    A nd           | Version:  7
     \\/     M anipulation  |
\*---------------------------------------------------------------------------*/
FoamFile
{
    version     2.0;
    format      ascii;
    class       volTensorField;
    location    "2000";
    object      gradU;
}
// * * * * * * * * * * * * * * * * * * * * * * * * * * * * * * * * * * * * * //

dimensions      [0 0 -1 0 0 0 0];

internalField   nonuniform List<tensor> 
15600
(
(0.0143174614111157 -0.00330959237942148 0 7.42044498500729 -0.075597619555414 0 3.96014011743342e-22 -1.11915314435861e-23 0)
(0.222171854151832 -0.00817052920118935 0 10.5078544021221 -0.405800519197602 0 4.44922956275755e-18 -1.71831726436204e-19 0)
(0.380973208638201 -0.0154309468686386 0 3.72801532430477 -0.194074974082845 0 0 0 0)
(-0.846658027221472 0.283005101426593 0 -2.9181621444061 0.948309632694982 0 8.95611246863764e-22 -3.91679506769914e-22 0)
(-2.05180294998111 1.0112249753859 0 -4.28346180264097 2.08947410023709 0 -3.21881772300599e-22 5.02225188902972e-23 0)
(-2.19878554144048 1.38603194243068 0 -3.48597632185483 2.18507308819232 0 2.79393186994636e-17 -1.75123383212264e-17 0)
(-1.79692020219659 1.29213261794858 0 -2.45537197996692 1.75809229548803 0 5.27503073269353e-22 -3.79670996896987e-22 0)
(-1.44708794841556 1.15958925446459 0 -1.8057517398944 1.44264952556216 0 1.57339909290601e-17 -1.25704374658589e-17 0)
(-1.2275716122942 1.02753486984564 0 -1.4545363805299 1.21653165124461 0 -3.63489615091652e-15 3.04013537243161e-15 0)
(-1.09859139999365 0.923974712970212 0 -1.2896176385688 1.08470087566028 0 -3.22333879710193e-15 2.71116998864548e-15 0)
(-0.982465598727761 0.824954774760087 0 -1.17539559538156 0.987625851675536 0 7.97990685579775e-22 -6.47239941219974e-22 0)
(-0.968225477843175 0.794639041521853 0 -1.17692241984053 0.966833304111261 0 -1.69662399845152e-21 1.40728488946969e-21 0)
(-1.10678269637543 0.898802313890255 0 -1.36768487423188 1.11149912328717 0 2.38471557860723e-21 -1.90466559304999e-21 0)
(-1.32182489787893 1.05808508576518 0 -1.66198260783836 1.33154719058087 0 3.51750186782313e-21 -2.7334244497665e-21 0)
(-1.63856601983934 1.29072895528565 0 -2.08766061738562 1.64521950547506 0 -1.79209630731206e-17 1.41226008619588e-17 0)
(-1.99189584184995 1.56578177544886 0 -2.55150243831212 2.00665841916437 0 -8.89134924907461e-21 6.88613762208039e-21 0)
(-2.4680013562569 1.92279908250159 0 -3.17834831192999 2.47937166414474 0 -2.71007035214304e-17 2.11394680991744e-17 0)
(-2.95995427761605 2.2430464115933 0 -3.89458566851913 2.95801918441988 0 3.29616611509315e-17 -2.50316774597427e-17 0)
(-3.31209444806986 2.40235233048612 0 -4.53723771638865 3.30349844616564 0 3.56535504127494e-20 -2.4801261043309e-20 0)
(-3.56225719165466 2.4209738855562 0 -5.19372230090268 3.55119358169066 0 -7.46283184105433e-20 4.97422822315174e-20 0)
(-3.64303996367684 2.27354695274142 0 -5.77593534770547 3.63911767361211 0 4.6182851555222e-17 -2.90803614222193e-17 0)
(-3.58012902954291 1.95024250896255 0 -6.40093041785006 3.53402694907927 0 -4.96281352618084e-17 2.73807556131137e-17 0)
(-3.28062665742053 1.51814792235537 0 -6.86786198868927 3.24316002750051 0 -5.12904964879296e-21 -1.80396068684194e-21 0)
(-2.84500178253861 1.07154298914424 0 -7.21605161095008 2.80274479979577 0 5.25186016611299e-20 -2.21076810652936e-20 0)
(-2.28567605113465 0.655269184720981 0 -7.43310335224542 2.24570288444981 0 0 0 0)
(-1.63520500080457 0.313249544402452 0 -7.47805045490418 1.59534187076738 0 0 0 0)
(-0.974851723624636 0.0876190499797064 0 -7.50739777806932 0.95403330029024 0 -3.72585891531323e-15 4.72781721742578e-16 0)
(-0.339045839778667 -0.0105976190339299 0 -8.03642205792659 0.363913915502372 0 -4.02826024186744e-15 1.81965025949186e-16 0)
(-0.0826730394971807 -0.00688032472612453 0 -9.42687514997542 0.138338980559434 0 1.52278265751803e-23 -2.22426398994437e-25 0)
(-0.0867715322705327 -0.00106041633571785 0 -10.9528715550368 0.0933021574523695 0 5.27241859135192e-31 -4.48490389152455e-33 0)
(-0.0643345563762716 -0.000565021087969141 0 -12.0396140393921 0.0676035521533567 0 0 0 0)
(-0.0478028789764214 -0.000385598074579804 0 -12.8784443695629 0.0498525324569761 0 -7.34276371858453e-15 2.84719449272347e-17 0)
(-0.0325412100558656 -0.000394093127228769 0 -13.3858786813185 0.0347250850099871 0 -7.6935922451365e-15 1.99100822703296e-17 0)
(-0.0150599192185249 -0.000349339347511581 0 -13.690118371379 0.0171944556871968 0 0 0 0)
(-0.00661294799129439 -0.000311764810397592 0 -13.7781837015949 0.0046543836342207 0 0 0 0)
(-0.00128767783025376 -0.000253395645619749 0 -13.7520387778333 -0.00743677154865146 0 0 0 0)
(0.0118840761280673 -0.000204206892128964 0 -13.5391380923402 -0.0155872868291131 0 0 0 0)
(0.0152447481401037 -0.000287854802322894 0 -13.2782988496225 -0.0198821182978734 0 -5.26051982730946e-20 -4.12168091395861e-23 0)
(0.0234302602429688 -3.55949981570926e-05 0 -12.93924249906 -0.0354272589662028 0 7.10269846314719e-15 1.94937009759942e-17 0)
(0.0290629702500926 4.97676309782081e-05 0 -12.2847234693142 -0.0287356638484824 0 6.78648485883141e-15 1.58435963934462e-17 0)
(0.026974930540265 -0.000178088165967812 0 -11.9512271720392 -0.0290449842850932 0 -4.90525565643332e-20 -4.0257632383026e-23 0)
(0.0320165028366322 -0.000165952278194896 0 -11.3492709055836 -0.0400951105688581 0 -4.5060128881526e-20 -6.35416333777374e-23 0)
(0.033296122315062 -6.85077214311606e-05 0 -10.7974523881214 -0.0417948481391615 0 4.50601288806985e-20 6.35416333765705e-23 0)
(0.0339587852434312 6.03015824449585e-05 0 -10.0929229619072 -0.0456936956749605 0 -4.05084450281632e-20 -6.40970092104142e-23 0)
(0.0389336747497231 -0.000101959869789995 0 -9.52771027490861 -0.0410094521628145 0 4.05084450278727e-20 6.40970092087065e-23 0)
(0.0422084190922311 -0.000103729450052125 0 -8.81416967857021 -0.048510512988169 0 0 0 0)
(0.0428118468029158 9.67928788675038e-05 0 -8.04761548403986 -0.0477787480397779 0 -4.59642083366765e-15 -2.73279524923111e-17 0)
(0.0386105986675409 -2.18783070378604e-06 0 -7.3939157861577 -0.0417323018272699 0 -4.24028094911435e-15 -2.39083959114986e-17 0)
(0.0292373085388243 -5.25710183614598e-05 0 -6.80860167134751 -0.0414976621881072 0 -2.8517024468398e-20 -7.33939339423289e-23 0)
(0.03825089873916 2.45951496842056e-05 0 -6.15540440580849 -0.0491647186138043 0 1.37638309164649e-20 3.75864435316742e-23 0)
(0.0427481586381042 6.54258357615347e-05 0 -5.38370752926656 -0.0449779603445489 0 -1.102290006888e-20 -3.45402192432291e-23 0)
(0.0329318654058249 -3.95891253587663e-05 0 -4.82871339426261 -0.0408215225884684 0 2.09314172210042e-20 7.04200967266732e-23 0)
(0.0370789784151256 3.66718655041549e-06 0 -4.18616217942062 -0.0488828967738946 0 -2.30237263839204e-15 -2.691166219949e-17 0)
(0.0396126419700304 0.000137229493563743 0 -3.44591653654648 -0.0441442678067255 0 -1.89972762575607e-15 -2.43212209813646e-17 0)
(0.0350876700908401 3.85549749973745e-05 0 -2.85554317670007 -0.0377570863449817 0 -3.65667293226464e-21 -1.55560341067738e-23 0)
(0.034541171969036 3.10347509160691e-05 0 -2.27036499960217 -0.0379016872160959 0 0 0 0)
(0.0264892012216451 2.63507229602193e-05 0 -1.72631558347472 -0.0340421199220488 0 1.66066182499318e-31 3.27560731062486e-33 0)
(0.0283472944501721 -0.000131038006924522 0 -1.24719823217821 -0.0370310155854845 0 -7.75389386554465e-22 -8.07493402580164e-24 0)
(0.0361845628847478 5.02303809950012e-06 0 -0.642133844731908 -0.040628020783556 0 1.01002769277665e-21 1.20911541864615e-23 0)
(0.0308937485039436 0.000143962928819846 0 -0.0649052420075112 -0.0345075506501916 0 -2.34638306214917e-22 -4.0162201605659e-24 0)
(0.0303649530020748 -0.000115789812004754 0 0.407623808830123 -0.0333928252905994 0 0 0 0)
(0.0318274605183055 -5.96823890085267e-05 0 0.958800591159331 -0.0372813928489368 0 -3.18210122744409e-22 8.29900125087832e-24 0)
(0.0242601373617298 0.000237605754522369 0 1.48563997626567 -0.0335856689669622 0 3.18210122742543e-22 -8.29900125082964e-24 0)
(0.0208757737995594 0.000100322096955378 0 1.90205321327282 -0.0268783287363247 0 -1.82996894054481e-31 2.58638720702735e-33 0)
(0.0259279327783102 -0.000227725094357104 0 2.30407032979613 -0.0282736179396586 0 0 0 0)
(0.0273693010779102 -0.000171388443304743 0 2.76812635620018 -0.030965091302889 0 2.30186211819773e-21 -1.76332351335488e-23 0)
(0.026355629034614 -8.46151761332031e-05 0 3.1966624622177 -0.0312950380949188 0 -2.30186211820595e-21 1.76332351336117e-23 0)
(0.0212131966063704 0.000257251889708359 0 3.67624176058575 -0.0328531143394399 0 0 0 0)
(0.0169060048889924 0.000324351286791831 0 4.04157023272018 -0.0231403394659161 0 0 0 0)
(0.0195914196327058 -0.000218455191846228 0 4.36121255210001 -0.0235636246255184 0 0 0 0)
(0.0192702690856233 -6.53772211273601e-05 0 4.71504891839913 -0.02437031726322 0 0 0 0)
(0.0129526649215153 0.000348030829963847 0 5.02307756915785 -0.0175496958098745 0 0 0 0)
(0.00937992675199075 0.000167879196840875 0 5.22132163436758 -0.0117946805189682 0 -2.88000018772054e-15 6.504274774569e-18 0)
(0.0110545500226794 -0.000159186215967756 0 5.38079962317182 -0.0137507414386577 0 -5.92664666339459e-15 1.51435867508628e-17 0)
(0.00936113538525613 5.33375717840244e-05 0 5.61849389709627 -0.0142273015636541 0 -3.088619887691e-15 7.82726786512704e-18 0)
(0.0101918344044505 0.000118854372977256 0 5.79016310307247 -0.011753360232001 0 3.88781415666531e-20 -4.86657723686431e-23 0)
(0.00933339565928228 4.68901410460065e-06 0 5.95960908453571 -0.0100944167766863 0 -1.97839527388891e-20 2.03109675616826e-23 0)
(0.00522690482184313 0.000121284824815917 0 6.09296324957048 -0.00775904045678337 0 2.07693661010687e-20 -1.17852984419037e-23 0)
(0.00158954700956246 0.000147172947769166 0 6.17782277632311 -0.00393887547320339 0 -2.07693661014527e-20 1.17852984421216e-23 0)
(-4.75161262755092e-05 6.25547547259998e-05 0 6.20126566853528 0.00101068787754723 0 -3.4236818313675e-15 -5.55943813315988e-19 0)
(-0.00270368969425327 -3.53381866892948e-06 0 6.18702449375659 0.000186333921061501 0 -3.39871403914875e-15 -1.0169046859142e-19 0)
(-0.000355104129366003 1.83814127655137e-05 0 6.18213464492706 0.00155735282933774 0 2.06907472488611e-20 2.16951029474137e-24 0)
(0.00242622803330178 6.99104462251752e-05 0 6.21481230235428 0.00155013605902614 0 -2.08309169639545e-20 -8.14493489207935e-24 0)
(-0.0046763352020254 0.000178065454284466 0 6.16619194929123 0.0049884829827808 0 4.13453484817414e-20 2.83410000654016e-23 0)
(-0.0113790511307786 0.000188811223825814 0 6.05272603891411 0.0128558520001898 0 -2.05144315177972e-20 -2.01960651733522e-23 0)
(-0.0135015848876806 0.000115325309474706 0 5.83415870187632 0.0171355634876238 0 3.7661115064417e-20 8.15588911954478e-23 0)
(-0.0108436586956616 0.000382860614321491 0 5.59139797479498 0.0206677976073362 0 -7.38544738586982e-20 -2.14940334514923e-22 0)
(-0.0264519977611146 0.000224934640997779 0 5.2975843457753 0.032723608891791 0 3.61933587930814e-20 1.33381443316387e-22 0)
(-0.0280797165530308 0.000124834023728919 0 4.75171769588798 0.0360563530295117 0 2.88121539850118e-20 1.80724795387082e-22 0)
(-0.0337050090894449 0.0002337136037135 0 4.31475278507245 0.0440760233629054 0 -5.30621265261374e-20 -3.93084172542521e-22 0)
(-0.0516518346999826 0.000385616887331662 0 3.54506953397347 0.055325611652323 0 2.42499725411276e-20 2.12359377155452e-22 0)
(-0.0473739514587758 0.00104560723843664 0 2.65407688498813 0.0786008460508638 0 0 0 0)
(-0.0909523593333975 -0.00269563476615038 0 1.77785036716184 0.111171164737043 0 0 0 0)
(-0.199471698470186 -0.0172514123979557 0 1.67312680442535 0.182471922857358 0 2.84489306860465e-18 3.09217373299817e-19 0)
(-0.435021512090695 -0.0740661831223567 0 2.1809294174554 0.411797735615969 0 2.41177936294518e-20 4.94906141639859e-21 0)
(-0.83777102261095 -0.220429532157787 0 2.89142507970566 0.802376557398126 0 6.11452250825154e-21 3.32146777547294e-21 0)
(-1.37503436480119 -0.489275690865794 0 3.63351484219569 1.33377826229886 0 -4.96397910862293e-20 -1.85513631002271e-20 0)
(-2.04355702560075 -0.90273209227618 0 4.41407551970163 1.99013347347245 0 2.88445147563382e-20 1.18487021837301e-20 0)
(-2.868136703244 -1.50508145017439 0 5.2583653735629 2.79642191378705 0 0 0 0)
(-3.71770253468956 -2.25349535459865 0 6.02139175287287 3.68303259178286 0 0 0 0)
(-4.65563410078539 -3.0710852573039 0 6.91624733120803 4.58883143343579 0 -5.65586579407229e-17 -3.75136593774046e-17 0)
(-5.60049554303837 -3.94907391610956 0 7.81917612125327 5.53466467786197 0 -6.52186181556343e-17 -4.61536734469483e-17 0)
(-6.66307126065626 -4.92551264923513 0 8.93361819920721 6.6195016114148 0 0 0 0)
(-7.54776162494614 -5.73336216195548 0 9.89943133593829 7.52819522079856 0 0 0 0)
(-8.51341317272428 -6.52466212921546 0 11.092249693823 8.50333174756691 0 0 0 0)
(-9.61472182614759 -7.38538248135037 0 12.4339554130444 9.55484354140148 0 1.06625768076988e-16 8.19348341291825e-17 0)
(-10.96277247778 -8.55883999691679 0 14.0024000762248 10.9412341783618 0 1.20667869995239e-16 9.42842651649495e-17 0)
(-12.5932854334148 -10.0183675304577 0 15.7782383016552 12.5625669324989 0 1.36908531344454e-16 1.09002323311364e-16 0)
(-14.1455080002228 -11.4352095144632 0 17.3375337270994 14.0321712262813 0 1.51771853598309e-16 1.22832394465292e-16 0)
(-16.0931448959208 -13.3730745285504 0 19.3576627307689 16.0992922450398 0 -1.71194499840385e-16 -1.42374597292625e-16 0)
(-20.2089250057778 -16.8772650530011 0 23.8039363043977 19.882507817665 0 -2.12193876953817e-16 -1.77237301432879e-16 0)
(-23.0711034972291 -19.2662618779231 0 27.3287124756196 22.8024609305132 0 0 0 0)
(-25.6440614048865 -20.6051947841274 0 31.9558175357493 25.5887757614269 0 4.48873827292417e-21 3.44374628264172e-21 0)
(-29.1057874149072 -21.1213310538055 0 39.6667421780235 28.6442299391853 0 -1.00903779697638e-20 -7.31304007825208e-21 0)
(-32.1358775752475 -20.5113229945009 0 50.6640190857792 32.1306253311181 0 5.50201494861881e-21 3.79467606952758e-21 0)
(-29.0282558612824 -14.3218366361041 0 60.3470906008787 29.4198706512862 0 0 0 0)
(-16.3747282341579 -5.11268088430605 0 57.5102046516017 17.4013261197754 0 -2.02570174718841e-16 -6.12846702820778e-17 0)
(-5.45947811705986 -0.892881356755398 0 42.1390829504806 6.37752748707834 0 0 0 0)
(-0.746052039431341 -0.0711681758782699 0 19.116839557527 1.05180936575221 0 0 0 0)
(-0.116593122786009 -0.00561986018751829 0 9.42829783327368 0.17499928163767 0 0 0 0)
(0.0393662607787146 -0.0254872064284814 0 17.5018075232829 -0.17596790595623 0 0 0 0)
(0.32533046264898 -0.0252990001702248 0 19.2696232979786 -0.71535585296487 0 8.16204899978554e-18 -3.02966569650915e-19 0)
(1.03304716594837 -0.0436087921630599 0 12.9269406152272 -0.830082125198483 0 1.0646919863665e-21 5.04539185683138e-22 0)
(-0.535915784240735 0.286283140443292 0 -0.488022927809092 0.631362753016186 0 8.25360160492661e-15 -3.86553833235781e-15 0)
(-2.41647378882788 1.19391837318331 0 -5.05933453625939 2.40480185044141 0 2.29139712332592e-14 -1.10188675084584e-14 0)
(-2.60099454897159 1.60815495474769 0 -4.28499422759069 2.58376239327529 0 -2.69393243472793e-17 1.68854965287627e-17 0)
(-2.12338111661287 1.50644583905711 0 -2.98848279840979 2.08590286172009 0 -2.83855750441957e-22 1.09947547337133e-22 0)
(-1.78059595066803 1.40578272339155 0 -2.26787531302585 1.77211851423108 0 -1.51671368954019e-17 1.21175080239977e-17 0)
(-1.4826465474812 1.2250283455894 0 -1.78808259825956 1.47194713585102 0 3.51759943521468e-15 -2.9420619450865e-15 0)
(-1.3201460014832 1.10766873956366 0 -1.55917906815255 1.30763421918639 0 3.09348581897389e-15 -2.60198420724314e-15 0)
(-1.28187107739501 1.07366668093124 0 -1.52923959334542 1.28276086848138 0 -8.22019862279198e-21 6.90351150793794e-21 0)
(-1.3171375432901 1.08852279027726 0 -1.5893556507539 1.31652574373636 0 8.96079705637644e-21 -7.33035276911376e-21 0)
(-1.46434735312226 1.20444194743988 0 -1.78021478453498 1.46758858086913 0 -8.53251038916777e-21 6.97999416404821e-21 0)
(-1.74106018389207 1.41798609566934 0 -2.13386700449826 1.74343552871768 0 -3.22596692517162e-17 2.61347327768595e-17 0)
(-2.13303854577076 1.71031550390539 0 -2.64382835696633 2.12409035743634 0 5.73135143789101e-17 -4.5513170058886e-17 0)
(-2.54557130154238 2.03419249492578 0 -3.17909064343605 2.54464731429219 0 -3.06943141706773e-20 2.42131505483352e-20 0)
(-2.94663460149928 2.33240870434607 0 -3.7038295172282 2.94466391906135 0 2.61977978722245e-17 -2.04344612942835e-17 0)
(-3.31285710174063 2.5408678395274 0 -4.27794198097452 3.30686416712087 0 -3.19492482214832e-17 2.42617390692098e-17 0)
(-3.4200530248888 2.50234928082223 0 -4.60516448623405 3.41305728479403 0 1.04813940067368e-19 -7.80501637356978e-20 0)
(-3.48846402249508 2.38475573364698 0 -4.99293136071855 3.47709289896862 0 -1.33498616008609e-19 8.80183055348984e-20 0)
(-3.38427274877904 2.12156662993126 0 -5.2994377166992 3.42768566844221 0 -4.4333498425634e-17 2.79140824078261e-17 0)
(-3.05483378458517 1.6405719408713 0 -5.41338917969833 3.05775720725522 0 4.77784012103165e-17 -2.63617766875836e-17 0)
(-2.68259597768098 1.20847558661389 0 -5.56283642710911 2.69370230753836 0 9.1502540347024e-17 -4.36249238470029e-17 0)
(-2.24856794367275 0.799576080971466 0 -5.67150040792276 2.25848404746084 0 -1.43099773190701e-19 6.18658593258873e-20 0)
(-1.75880460933047 0.444103642513849 0 -5.71722473545842 1.76297285918656 0 4.56511056979971e-17 -1.38776433098343e-17 0)
(-1.24693642839354 0.174336388833146 0 -5.73303800805135 1.24949373448561 0 -4.50272224836499e-17 9.65220851653926e-18 0)
(-0.776144457156228 0.00737907809558057 0 -5.80833419293989 0.75966851165311 0 3.63677029581762e-15 -4.58765706714968e-16 0)
(-0.369641796907738 -0.0423902815484678 0 -6.32366265713486 0.399487990723683 0 3.82331841192916e-15 -1.70197301452158e-16 0)
(-0.202844163066983 -0.0196682431382538 0 -7.25745806464961 0.229341418660652 0 -4.11310550465084e-23 7.96991773731859e-25 0)
(-0.169835813289194 -0.00588840945860431 0 -7.85314435405003 0.157645321432328 0 -5.08738443501007e-31 4.32750735832749e-33 0)
(-0.124573078888723 -0.00373257482902739 0 -8.23552099286616 0.11163971218366 0 0 0 0)
(-0.0841403831398348 -0.00287058669042168 0 -8.44307472921296 0.076264071997822 0 7.1893470304513e-15 -2.78117382021319e-17 0)
(-0.0467794484625678 -0.00284090707478928 0 -8.49316494188262 0.0482255986631289 0 7.31906589793916e-15 -1.88717683726101e-17 0)
(-0.0232358143207998 -0.00262953533708767 0 -8.52068197873586 0.0190145167273364 0 4.95117221702621e-19 -7.88629635020263e-22 0)
(0.000790598254676276 -0.00212713745521354 0 -8.44226526041837 -0.00383488229525319 0 -2.49075594868623e-19 2.22641768327117e-22 0)
(0.0252377155496931 -0.00175080581413626 0 -8.25742047965659 -0.0245279879622393 0 -2.45677002024644e-19 -2.83712594894002e-22 0)
(0.034914997349762 -0.00102678702887994 0 -7.94333802607328 -0.0417449122060954 0 2.45677002024101e-19 2.83712594893375e-22 0)
(0.0439441997264354 -0.00167490452359428 0 -7.67589011172963 -0.0487537491276643 0 1.23264717370211e-30 1.84750573666121e-33 0)
(0.0746404053529133 -0.000842268037439576 0 -7.31755712371045 -0.0722556047629499 0 -6.92553654870762e-15 -1.89957275885431e-17 0)
(0.068186612470527 0.000582895829029504 0 -6.98021593032007 -0.0640276175597891 0 -6.47611141434519e-15 -1.51013379243652e-17 0)
(0.0651131314679428 -0.000946823839818442 0 -6.63822019845143 -0.0626980434417464 0 0 0 0)
(0.0816274679946577 -0.00109615998238033 0 -6.31528798004154 -0.0795136027791239 0 9.8785219153927e-20 4.68552841398552e-22 0)
(0.0904854048223596 -0.000485085093642532 0 -5.88216859423013 -0.0842056096991326 0 -5.90747161023109e-21 3.16694877462872e-23 0)
(0.0911437132826556 1.55515062406787e-05 0 -5.44872696704403 -0.0906499192334158 0 -9.28777475428411e-20 -5.00222329141393e-22 0)
(0.0868885575769729 -0.000175217223337173 0 -5.01282602475929 -0.0845266550900338 0 -8.12546511121932e-20 -5.10646338325372e-22 0)
(0.103509773691703 -0.000565377559092039 0 -4.62705940285855 -0.0943710840152042 0 1.55751515699163e-19 1.05820417509592e-21 0)
(0.0969024886377875 0.000574574718924013 0 -4.14877725157743 -0.0942389050688595 0 4.46334657161251e-15 2.65347729013996e-17 0)
(0.0831951329750514 0.000626874965339348 0 -3.76364282425618 -0.0834601550327148 0 4.06311046480431e-15 2.2902467082182e-17 0)
(0.0929057867804223 -0.000685086377902414 0 -3.34756714335007 -0.0826613155439186 0 6.27389287204038e-20 4.69119442038847e-22 0)
(0.102145711902059 -0.000371558251463075 0 -2.85286395155178 -0.0955970371293933 0 0 0 0)
(0.0876603040792099 0.000762316990989197 0 -2.43511394117144 -0.0890170837323064 0 -2.21408381970332e-20 -2.44167525568691e-22 0)
(0.0849851148574975 -0.000347722203166922 0 -2.07297747263219 -0.0811168550869486 0 2.21408381968465e-20 2.44167525566056e-22 0)
(0.0991481483195777 -0.00033418511493477 0 -1.60662671989991 -0.094911602162152 0 2.22880875175109e-15 2.60570228545062e-17 0)
(0.0913120585753648 0.000964968013080926 0 -1.19065197699706 -0.0880694080172634 0 1.82581386635975e-15 2.33778360330788e-17 0)
(0.0805678648382283 0.000581067246681956 0 -0.826629648170055 -0.0758205054665606 0 -5.2597090817584e-21 -1.07979799572569e-22 0)
(0.076526489113416 0.000337490529768183 0 -0.475710089475212 -0.0745629775830474 0 1.24903586041219e-21 5.50839035102248e-24 0)
(0.0743254812226672 5.92166688491522e-05 0 -0.166373292749029 -0.0699922404743485 0 1.21311185777327e-21 9.66511642464713e-25 0)
(0.078482423405995 -0.000519560697237963 0 0.265331385617832 -0.0744502110371037 0 2.79756136341292e-21 1.01504897575924e-22 0)
(0.080114891716618 0.000246025629016188 0 0.58013269093553 -0.0763714456416741 0 -5.22492781717325e-23 -2.64923578834958e-23 0)
(0.0724073829271393 0.000570776009659083 0 0.907099507514911 -0.0691116415737053 0 5.22492781711312e-23 2.64923578831909e-23 0)
(0.0703651629252344 -0.000155978325078926 0 1.23665057198967 -0.0682499831458876 0 5.30320338303954e-22 -2.47998158991704e-23 0)
(0.0742589239979991 4.25223482367295e-05 0 1.55480391469034 -0.0698424231841646 0 -5.30320338310054e-22 2.47998158994556e-23 0)
(0.0687003395188654 0.000788786287491834 0 1.88082522338242 -0.0646162177738902 0 -4.45460735287634e-21 8.5630964448494e-23 0)
(0.0597803638913035 0.000425023534578701 0 2.20420765898931 -0.0562454177000652 0 4.45460735305299e-21 -8.56309644509911e-23 0)
(0.0592772173975298 -0.000170214728417599 0 2.48027516625995 -0.0569730299075768 0 0 0 0)
(0.0604268613828806 -0.000123032452207792 0 2.74367069934383 -0.0561850744793782 0 0 0 0)
(0.0630350816012129 -0.000100881533494423 0 3.01184352520086 -0.057971712264089 0 0 0 0)
(0.0620874718752557 0.00054390532759251 0 3.31566673939452 -0.0573161885440364 0 0 0 0)
(0.0506238529559018 0.000589125978355597 0 3.60832224070991 -0.0483942163128042 0 0 0 0)
(0.0466878193147085 0.000104980679779803 0 3.85593953554756 -0.0476609681966014 0 0 0 0)
(0.0458897344675793 0.000664755500381372 0 4.08714252117493 -0.0409162579441064 0 0 0 0)
(0.0369695025558376 0.000889883584420812 0 4.2656768162211 -0.0308116508006264 0 -4.94678619281588e-20 1.58184546675442e-22 0)
(0.0258698905063752 0.000205501477900509 0 4.44372636837132 -0.026139431671667 0 2.76011030324146e-15 -6.23026621115878e-18 0)
(0.0280553613387241 -7.6702302777433e-05 0 4.58155832223465 -0.0282511451727683 0 5.71652345869621e-15 -1.46043306361394e-17 0)
(0.0310269517792869 0.00014246230274912 0 4.74963415190445 -0.0258294426616131 0 3.00114772055662e-15 -7.6061009092416e-18 0)
(0.0233713047018508 0.00028821453410114 0 4.89429516086908 -0.0253481163698783 0 1.11554010568653e-19 -2.621331848487e-22 0)
(0.0204702646205812 0.000392551269383625 0 5.00035155298689 -0.0196115416908205 0 1.33643107788936e-21 2.56282820858962e-23 0)
(0.016326129340852 0.000486133190642052 0 5.103906924739 -0.0161156292138818 0 -5.78763512165114e-20 9.60300572535075e-23 0)
(0.00915249792521331 0.000720341989600017 0 5.19947254609216 -0.00930110863147334 0 -5.9539760554577e-20 1.7263565689333e-23 0)
(0.000986601263352689 0.000346356159426374 0 5.25271204156673 -0.00105137582004437 0 3.26976138236143e-15 5.3316711240413e-19 0)
(0.000901712109428406 5.82670076999782e-05 0 5.27258485227592 -0.0020573086063721 0 3.31330352135446e-15 1.01377461685627e-19 0)
(0.00310595681854455 0.000116239123725196 0 5.34250136571025 0.000618157819112403 0 -5.96630418464153e-20 -9.15284784548158e-24 0)
(-0.0040762983963297 0.000267983198231446 0 5.3122481128735 0.000691367590960325 0 0 0 0)
(-0.0111958663134734 0.000939677811550051 0 5.30907544388876 0.00714182774167939 0 -1.17737506444291e-19 -1.91171197455154e-22 0)
(-0.0211817271562575 0.00101334739599854 0 5.28987159863112 0.0204438628819169 0 1.17737506444546e-19 1.91171197455569e-22 0)
(-0.0319044973360412 0.000656380011846975 0 5.21074712348086 0.028495475328533 0 1.10805883277427e-19 4.09192375075818e-22 0)
(-0.0420525957674814 0.00115341206303583 0 5.06322423523913 0.0366307806666948 0 -1.1080588328e-19 -4.09192375085321e-22 0)
(-0.0559982983531513 0.00129980003770918 0 4.80265086476593 0.0519046881994329 0 0 0 0)
(-0.0686161550619469 0.00100009626865725 0 4.64451501817901 0.0636064606650947 0 0 0 0)
(-0.084925796260727 0.00167316726142832 0 4.25893886585431 0.0758618470570669 0 -7.7954671645285e-20 -1.0785712502509e-21 0)
(-0.11156858224921 0.00302926710420434 0 3.92746946502156 0.102954694267807 0 1.41341508101563e-19 2.55268274156101e-21 0)
(-0.126439835467139 0.00448739136552424 0 3.37761863882518 0.139729982163179 0 -6.33868367986537e-20 -1.47411149927228e-21 0)
(-0.172105433687483 0.00219276118716304 0 2.80345590531564 0.187768906050866 0 0 0 0)
(-0.307636297843649 -0.014329165681185 0 2.62607412935553 0.30229892087838 0 4.47997169533403e-18 5.12662620495141e-19 0)
(-0.513555694889772 -0.0646780720444179 0 2.75046362933738 0.516071961350696 0 0 0 0)
(-0.825294821063475 -0.183513185970685 0 3.04868795590746 0.833404998589261 0 -2.06294429149299e-17 -5.66350572069568e-18 0)
(-1.22361558693565 -0.389394166831506 0 3.43486892845315 1.23818237997134 0 5.03617936969646e-17 1.82794771082625e-17 0)
(-1.7381109724354 -0.708969535097101 0 3.96046812735611 1.75452668835294 0 1.03763629569659e-19 5.14768709146667e-20 0)
(-2.38228946298012 -1.17603466056169 0 4.58434376018074 2.403271766967 0 -1.08466673682527e-19 -5.38100390556437e-20 0)
(-3.1901933818708 -1.86910158129753 0 5.37395725682184 3.26145140694784 0 -1.50802166466629e-19 -9.67014387367763e-20 0)
(-4.08114420315361 -2.60858596235693 0 6.25322556417023 4.08454910252363 0 5.47031316763849e-17 3.62794661449135e-17 0)
(-5.02885028088872 -3.45283212314122 0 7.23880582652934 5.0474522955382 0 -6.00489017494309e-17 -4.18290745051084e-17 0)
(-6.22123899309872 -4.5022365430005 0 8.55748741307731 6.24787430513543 0 1.44880111946326e-16 1.06536919426162e-16 0)
(-7.27022276048022 -5.41355167039657 0 9.7400931021753 7.28175292224628 0 0 0 0)
(-8.47237266574575 -6.38261089895462 0 11.2388707620161 8.47840746285696 0 0 0 0)
(-9.58731454276379 -7.25841536744392 0 12.5991564664505 9.5621877003026 0 -1.02805193364565e-16 -7.89989757434823e-17 0)
(-10.8670549698506 -8.36307481902252 0 14.0805246221706 10.8779826825659 0 -1.16339595802584e-16 -9.09023528820614e-17 0)
(-12.2485882377806 -9.60707673509539 0 15.5547996241382 12.2435524360327 0 -1.31991139519151e-16 -1.05087248565278e-16 0)
(-14.226694948803 -11.3472199137645 0 17.6409384693668 14.1265462215403 0 1.54248105430833e-16 1.23501889186757e-16 0)
(-15.8257796430831 -12.8978481507128 0 19.2296821127049 15.7148646809087 0 1.6485332334196e-16 1.37101130720005e-16 0)
(-17.916728165768 -14.768223122851 0 21.401898743253 17.6466759025715 0 5.99787949326113e-16 4.989340791991e-16 0)
(-21.4108341577701 -17.5092385505477 0 25.8059801939674 21.0303660001142 0 0 0 0)
(-25.9048684277892 -20.4344861937156 0 32.7103579754338 25.533005111082 0 0 0 0)
(-28.0507960035039 -20.1495587522949 0 39.0979397249484 27.5842039430268 0 6.51571236607359e-16 4.650399438765e-16 0)
(-32.232545352347 -20.1639936297044 0 53.0851002185102 32.2304221053862 0 8.16951511546244e-16 5.06539086204367e-16 0)
(-34.0614208793585 -16.6240695998808 0 73.2380709681742 33.928399047666 0 -9.86395601746681e-16 -4.674410538302e-16 0)
(-23.1973054087548 -7.69949430718665 0 79.1638206478934 23.5768763428724 0 1.95428183581588e-16 5.91239643804733e-17 0)
(-9.29544698943246 -1.99646068262205 0 59.456928913987 9.90943275137167 0 0 0 0)
(-2.17537635999361 -0.32502469545334 0 33.3358496753962 2.46475177126493 0 0 0 0)
(-0.461818354194574 -0.050298407934548 0 20.0099750307997 0.466466359926175 0 0 0 0)
(-0.0237761619626694 -0.0634970356143347 0 24.2527852840401 -0.176627138057127 0 0 0 0)
(0.316345780051824 -0.0510903429080295 0 23.8401254377156 -0.786287377410504 0 -1.20184577126283e-17 4.5232946215537e-19 0)
(1.31710185634839 -0.0684919885856774 0 19.3996626536851 -1.18065282170768 0 0 0 0)
(0.826226403116043 0.0192062984642266 0 6.45992054777811 -0.622287309069004 0 -7.9351699206122e-15 3.71609047842486e-15 0)
(-1.4190930172304 0.75383793605453 0 -2.49674178892612 1.30796345620167 0 -2.20433882424315e-14 1.05993856739834e-14 0)
(-2.27566592552658 1.39490713642645 0 -3.81809793209091 2.233055087387 0 8.96695559111847e-17 -5.41248734974226e-17 0)
(-2.00197150948288 1.40157837858856 0 -2.92098760941322 1.98113589055381 0 0 0 0)
(-1.6843001524492 1.30798826999784 0 -2.21053856573851 1.68307294331846 0 4.89684948216446e-21 -3.93646418274665e-21 0)
(-1.47778285850978 1.20385523398492 0 -1.81721644236179 1.46860952159517 0 -4.33766351855147e-17 3.56256843370336e-17 0)
(-1.34361755068195 1.1279955162086 0 -1.60111995175772 1.34153069589158 0 3.8327570971602e-17 -3.21593428688655e-17 0)
(-1.30780269728525 1.09460293101664 0 -1.55864359109701 1.30712163117385 0 5.32970394623389e-22 -3.50755700372839e-22 0)