/*--------------------------------*- C++ -*----------------------------------*\
  =========                 |
  \\      /  F ield         | OpenFOAM: The Open Source CFD Toolbox
   \\    /   O peration     | Website:  https://openfoam.org
    \\  /    A nd           | Version:  7
     \\/     M anipulation  |
\*---------------------------------------------------------------------------*/
FoamFile
{
    version     2.0;
    format      ascii;
    class       volScalarField;
    location    "2000";
    object      Pk;
}
// * * * * * * * * * * * * * * * * * * * * * * * * * * * * * * * * * * * * * //

dimensions      [0 2 -3 0 0 0 0];

internalField   nonuniform List<scalar> 
15600
(
0.000126674162794563
0.000561153855872782
0.000355425440587176
-1.02613042655958e-05
-0.000112207952132579
-0.000118790027455834
-3.80219112298624e-05
-2.03214601518786e-05
-6.29251035288388e-06
-1.37050226987632e-06
-1.50645103839373e-06
3.34898716877633e-06
8.74096145893729e-06
1.20709141231532e-05
1.25263594781829e-05
9.02965199585051e-06
1.71991963184529e-05
5.98138229666573e-05
8.08974651947675e-05
0.000185164654283819
0.000278745186467383
0.000340521662302013
0.000372458304683736
0.000389540913361098
0.000340969857389581
0.000364433076166801
0.000229287893751803
0.000464941097813471
0.000461624878469343
0.000514838158107672
0.000441688500284873
0.000422613744718612
0.000411532235643222
0.000360796140601908
0.000312797126287407
0.000215945721453191
0.000128114046248042
8.93602584380573e-05
-1.11923617437861e-06
-1.28707323881752e-05
-2.1978661245866e-05
-0.000107683377126994
-0.000146807445573826
-0.000184780820887609
-0.000186521380610885
-0.000256798138604311
-0.000270354103670485
-0.000253555048144475
-0.000232463108774524
-0.00027309301952312
-0.000270764569388345
-0.000258957417512772
-0.00026307412526899
-0.000247111269495633
-0.000216873998859353
-0.000218709889427919
-0.000203573915421988
-0.000188509354543679
-0.000213374302974773
-0.000169519032763685
-0.000152155501456187
-0.000157839613473084
-0.000108332447338915
-6.67522098343142e-05
-5.98573121878909e-05
-3.59366547860288e-05
-2.76350790981027e-06
5.78137770644652e-05
1.57362448575303e-05
5.31384584243003e-05
0.00017145959679479
0.000249331067986408
9.59266621016457e-05
0.000183122314751893
0.000324345492096246
0.000109278003833817
0.000268710152258701
0.000346351413415093
0.000259198791003537
0.000447286875652131
0.000328517015130395
0.000159034860195592
0.000402580790688878
0.000385102099677835
0.000294167207024783
0.000262487446266675
0.000284688301103745
0.000452248364787649
0.000239313974151333
0.00032398692771659
0.000221804577465384
0.000226396318379847
0.000238099052539406
4.2033328958833e-05
1.0850248664487e-05
9.53920279414186e-08
5.93028507252736e-05
8.97210125474249e-05
0.000151786048225487
0.000269990666498136
0.000203046682346376
0.000202072676859483
0.000132144613341582
4.31989588100685e-05
-1.14742408236246e-05
9.06026389836399e-05
0.000247550665552092
0.000270892652685791
4.84855603522104e-05
1.57121766785904e-05
6.21119844880446e-05
6.0881699195452e-05
-2.1620401179675e-05
0.000304295442933743
-0.00042572456025326
-0.00168134069556174
-0.000938169339744561
0.000279688091587176
0.000686458744915736
0.000704434322792457
0.00696669596609497
0.0110057001111811
0.0129749096816358
0.00347902227988729
-0.00095571297112537
-0.00161321573545825
-0.000784236594873382
-0.000448294622204423
-0.00019353587434724
-4.31233713026249e-05
-2.69832180905337e-06
0.000101527112354515
0.000174935949893586
0.000288020149486272
0.000407587051901119
0.000497667372499454
0.000628000203721538
0.000757891346701489
0.000923198381658779
0.00107302248419084
0.00104601019866568
0.00115914321725955
0.00122295755464313
0.0011243010554507
0.00102597655549314
0.000928093985081957
0.00113401297895744
0.00237070814153045
0.00268012056256741
0.00244522920065588
0.0019478158286525
0.00160634926356918
0.00119479200454365
0.000580821360926168
0.000144311345000335
-0.000417653330337291
-0.000868936995330508
-0.000997636058884879
-0.00157869128071793
-0.00151121593874597
-0.00142675027187077
-0.00188449489770229
-0.00207980152598885
-0.00223408426156595
-0.00216272233709348
-0.00243003544067739
-0.00249632135806847
-0.00213471842410357
-0.00213532126883315
-0.00235891347558759
-0.00211558943936167
-0.00194420569909915
-0.00217950071658837
-0.00199248963136323
-0.00169171404440464
-0.00156657860039984
-0.00143661878184705
-0.00141409333629807
-0.00135565238505446
-0.00112424242782474
-0.00101703647107555
-0.000959305878154682
-0.000752602762417331
-0.000488845627733641
-0.00040612212029789
-0.000323103781812722
-0.000254706118125392
-0.000130963966717594
0.000143999193062932
0.000263248785329295
0.000452422032924775
0.00067543058009942
0.000858342030235533
0.000838965873848217
0.000902159930595048
0.000999832789196008
0.00112651121362535
0.00123071679683526
0.0013758007998656
0.0014985336972082
0.00153116515423613
0.00153544339289835
0.00148279221953688
0.00154274173852279
0.00168806718910559
0.00174202798360685
0.00174683928507993
0.00182295234630354
0.00180876037730565
0.00175016235286326
0.0018418775076721
0.00185592294069872
0.00151129281583069
0.000642612724530963
0.000245759814061743
0.000123328492463621
7.46824065554997e-05
-8.8960124057558e-05
-6.48731009341742e-05
8.83410738593878e-05
-4.90640452758661e-06
9.91930006587552e-05
0.000473307212954086
0.00065437956562479
0.0010824390379161
0.0017235860357213
0.00206062329290733
0.00257806128317815
0.00335301525956253
0.00331524881673129
0.00600937239095193
0.00540837496761316
0.00843089390885153
0.0124002742843396
0.00748858533373598
0.00244087517239844
0.0263175001645494
0.0382274300853429
0.0213020996071509
0.0129869328853975
0.0389003450105802
0.0453002171864388
0.0491587421906661
0.0184535676385947
0.00146832736167238
-0.00248078073840222
-0.00172746835402746
-0.00104202762238836
-0.000534812829926136
-0.000161616406116073
2.04144235086539e-05
0.000298311933477524
0.000599579243344043
0.00100468269371055
0.00137456929841814
0.00164507930149553
0.00194871993069944
0.00205443419840248
0.00205625114900169
0.00205873628157693
0.00159219296140701
0.00154037126841165
0.00150984006717071
0.00124824891440448
0.00113996587571591
0.00111919656166504
0.0018417227318935
0.00351586569685925
0.00354661795795818
0.0026789000597466
0.00162744668260466
0.000729723291306663
7.74240918846418e-05
-0.000790594630155495
-0.00146858579516984
-0.00219177042293241
-0.00285492046002798
-0.00301582724413743
-0.00356730423984806
-0.00342051071155031
-0.00326671026195114
-0.0036717591703328
-0.00395253144060404
-0.00406144183772608
-0.0039343270660376
-0.00418708146062118
-0.00421977247434347
-0.00374513975879717
-0.00365672216081332
-0.00384624096997318
-0.00351822046348121
-0.00318936540576868
-0.00342019977705019
-0.00313398110996169
-0.00270919134617068
-0.00251566217132367
-0.00236384646698275
-0.00230693410765995
-0.00214801489500216
-0.001899557977257
-0.00177183939374095
-0.00167741658106543
-0.00136679293055436
-0.00101034398734486
-0.000889093249756854
-0.000802064297169502
-0.00075101207070856
-0.000607662846545912
-0.000219752823711209
-3.37588526524461e-05
0.000284881277984957
0.000637049851218201
0.000916849694024352
0.000908877786145982
0.00101052126561263
0.00115655854597624
0.00141958985338153
0.00157976038976661
0.00185548425770376
0.00209508669522465
0.00221683534026181
0.00225301333517923
0.00219474117812876
0.002316759767805
0.00266660081775619
0.00287600742690558
0.00305229968904731
0.00334660237098844
0.00336392698299798
0.00348832447587733
0.00381517688631263
0.00399297604891464
0.00355396865780033
0.00211885910353088
0.00112988648297174
0.000428015378430294
-0.000122957906551401
-0.000859383047414432
-0.00127048026421121
-0.00166835681901693
-0.00198088763741472
-0.00217510935836506
-0.00168291222258678
-0.00136694425374172
-0.000667987516899372
0.000652673286108379
0.000721515153755271
0.00130203276587552
0.00207670204001291
0.00120686020150283
0.00466046967599552
-0.000289112728673213
-1.0925670179962e-05
0.00486301993405891
-0.00137794198438962
0.0115640978338212
0.0751673793088645
0.134355425349509
0.0942101737653187
0.0583342575076801
0.0916612436866533
0.089884864450899
0.0963154677080089
0.0449695786957901
0.0080879095148665
-0.00229155072464913
-0.00287489824857687
-0.00169138580471269
-0.000910904243245304
-0.000379997204783401
7.00044376797465e-05
0.000525503114651142
0.00108759642293522
0.00179146724589202
0.00235874068611784
0.00271512101832886
0.00302388150979591
0.00287318208210072
0.00260246805833544
0.00230342091031738
0.00155864584731309
0.00137638414777438
0.00127018383639852
0.000971044845137258
0.00097064658973329
0.00118611272916681
0.00211685927358674
0.00351235832988029
0.00313793813533293
0.00199395885005616
0.000812720962192369
-0.000166506449204292
-0.000861789459884588
-0.00162659209176178
-0.00224234704959466
-0.00289700156635476
-0.00349720909951023
-0.00368038052163687
-0.00408289998229176
-0.00388656400821937
-0.00376256246250749
-0.00405111025258392
-0.00433558785484044
-0.00444451592729336
-0.00431454926349087
-0.00457274762205222
-0.00453833848692346
-0.00417531143899326
-0.00407417149457841
-0.00418456943849061
-0.00383820463073999
-0.0035202728162912
-0.00368112971597878
-0.00338086993766093
-0.00299947572438068
-0.00284837119299095
-0.00274018544064836
-0.00265205662698865
-0.00240057781504574
-0.00221710152706087
-0.0021431173661359
-0.00203134186393515
-0.00171107129660112
-0.00137278686875436
-0.00126104150296777
-0.00117584140784573
-0.00115199179319256
-0.00102916721533529
-0.000657648136628696
-0.000459175403597209
-0.000124452872453961
0.000258210515442078
0.00057251688302262
0.00056892111741395
0.000683009598879502
0.000855015578391189
0.00113054949556899
0.00133830331874438
0.00161859371500962
0.00193003368993757
0.00212098495902426
0.00218763836858407
0.00216209449936832
0.00232331826862339
0.00274079126370553
0.00305688381423795
0.00338607251378341
0.0038321267189368
0.00397457771040967
0.00423453126001992
0.00481495490250671
0.00515690082891863
0.00483752318984231
0.00334116098798824
0.00198286985269049
0.000739440792624646
-0.000235981094375707
-0.00136348411763165
-0.00201544785566398
-0.00285745341452283
-0.00369535885357106
-0.00439890654032078
-0.00454737399941254
-0.00456646794460742
-0.00411677668462022
-0.00292299659202299
-0.00338905821407538
-0.00331933022469238
-0.00340120375173071
-0.00465558563323264
-0.00276070410284553
-0.0086943207163982
-0.013039601361727
-0.00960201503030561
-0.0193271687851039
-0.00786542200708795
0.0532507910803792
0.15823284060929
0.178912697767636
0.134639362080582
0.144766897739702
0.128384648141454
0.13732144568865
0.080134706224154
0.0189502909803578
-0.000268259739904472
-0.00347432218365567
-0.00233375197789904
-0.00128451529038936
-0.000598596363712063
0.000108488427407768
0.000716064528007223
0.00147875942366379
0.00236181109750565
0.00301490491705285
0.00334898833497567
0.00351905844957218
0.00300785855377246
0.00258567294724475
0.00210581155044501
0.00134192357741549
0.00109537780392055
0.000939684755310453
0.000732567776381442
0.000888183305577924
0.0011867217177276
0.00209354953702668
0.00306311062557621
0.00244616741810019
0.00133128208909923
0.000275802698366604
-0.000597961789602608
-0.00119901642536835
-0.00177174878713189
-0.00228281194673149
-0.00282642149425253
-0.00331894321828284
-0.00349270458242623
-0.00379021491429094
-0.00361957378200167
-0.0035175289605533
-0.00375332343422699
-0.00398131374529251
-0.00411558979215191
-0.00402659509978803
-0.00429783010199376
-0.00427847499755652
-0.00404409569813988
-0.0039442785517044
-0.00401871360479742
-0.00371515826070553
-0.00343240507552937
-0.00351986872109509
-0.00325550992645656
-0.00292873761839238
-0.00283457816949621
-0.00278994751669669
-0.00268405741545309
-0.00239876807822642
-0.00225701161189509
-0.00222488945495963
-0.00212106855359512
-0.00182466370877894
-0.00152052948326633
-0.00143328272263644
-0.00135747698100306
-0.00134203078703122
-0.00124176127936275
-0.000922857359705453
-0.000692744681332276
-0.000360857106702343
-4.03150335850826e-05
0.000270145555116593
0.000296708155189175
0.000424112584351419
0.00060275719921996
0.000840561057461104
0.00104766790246404
0.00132505742398603
0.00164363322191601
0.00187856823540117
0.00197554319255502
0.00196549599012583
0.0021389871068861
0.00256569606511209
0.00294660866053635
0.00337452200544425
0.00387127200639642
0.00410438304625462
0.00445901943641845
0.00517851078696033
0.00563174812741947
0.00549929407252788
0.00418033735748643
0.0026807294776978
0.00120452896740434
-4.52938986439232e-05
-0.00136014081751141
-0.00219889079239485
-0.00331238717791309
-0.0044604643311576
-0.00531800818444395
-0.00625024623029393
-0.00653862277084268
-0.00630909872802357
-0.0054606030081821
-0.00621344437558674
-0.00678432620835663
-0.00763131044211444
-0.00953445463451995
-0.00974513860802714
-0.0147067591026039
-0.0215749143148524
-0.0224119736789979
-0.03307505793085
-0.0263765646313281
0.0192742691040279
0.110002087972078
0.205036802276937
0.203434392106672
0.180942137984379
0.154581835464213
0.164402720024123
0.11826677563617
0.0350312444682787
0.00310730947516128
-0.00309649708537829
-0.00257199283065555
-0.00152502646148315
-0.000754756231806367
0.000117590292875451
0.000825840617063903
0.00172542574271392
0.00267473174919829
0.0033114899793844
0.0035473871197759
0.00359763253262681
0.00286173595827149
0.00239048448111652
0.00182243499778235
0.00103678869582247
0.000842584350019928
0.000764981348346976
0.000647660454677446
0.000845424172374023
0.00114671589257883
0.00193152761798214
0.00252204701124826
0.00185664148996351
0.000897544891163764
5.92358565513489e-05
-0.000676120571810562
-0.00116093424941588
-0.00157678297906538
-0.00198859985332773
-0.00240154301909984
-0.00281628524860347
-0.00301547823086743
-0.00321853297359165
-0.00313141099138551
-0.00302169608144431
-0.0032168551519202
-0.00340207562870424
-0.00355021839227014
-0.00351040304132357
-0.00375998258726504
-0.00380249494156627
-0.00369292189205448
-0.00359290489815578
-0.00364476605904676
-0.00343316765699003
-0.00317521651217612
-0.00319343598118527
-0.00299432322901881
-0.00269990633525609
-0.00263884781414001
-0.00266363508950578
-0.00255003237042915
-0.00225546097773145
-0.00214655810137915
-0.00212820870337009
-0.00204551434204421
-0.00179930549866095
-0.00152663888511603
-0.00145620738878149
-0.00137942894154273
-0.00136696931663343
-0.00129083594941046
-0.00103175535257518
-0.000756922392406659
-0.000438539711308284
-0.000209262265538767
7.91291460778545e-05
0.00013284664714743
0.000279891748732131
0.00045187143647808
0.00066627212308773
0.00084816516594503
0.00111308689643661
0.00142605172332358
0.00168385243554721
0.00177946185364065
0.0018160062017131
0.00198632599673865
0.00237729127721689
0.00277853907298089
0.00326560460988428
0.0037895806260847
0.00406446500324483
0.00446530171713458
0.0052213451926988
0.0057474404329435
0.00575389756437025
0.00472405965344765
0.00324568048285773
0.00170917383036097
0.000382178998724884
-0.00102213738288276
-0.00208468420707361
-0.00338784384395617
-0.00439926447374247
-0.00528369926859251
-0.0066700624629712
-0.00714651735101137
-0.00720031645655352
-0.00658533598930896
-0.0076455064736003
-0.00855021761660664
-0.00973684040487822
-0.0125103677530392
-0.0148072056766098
-0.0195870844889451
-0.0276999031890664
-0.0294743767243713
-0.0366338211621044
-0.03150627240639
0.00268849287665112
0.0608342272109437
0.17028706036538
0.229099098607448
0.191186254626803
0.166337523346149
0.177424938009148
0.152877231168192
0.0566317299271141
0.00785190771874215
-0.00185566629689725
-0.00242958293102078
-0.00157474389836477
-0.000880505385561956
0.000101270565476591
0.000830628351871133
0.00181883356906092
0.00274484849150446
0.00335784795804819
0.003464319562422
0.00344593384887311
0.00262752673596865
0.00215122022961631
0.00154642689413886
0.000756822522634065
0.00071673717421237
0.000664719734769355
0.000586366634584336
0.000776817805507908
0.0010847785521264
0.00170077930291015
0.00202723417414932
0.00144323788901303
0.000681687459238552
5.06115487120113e-05
-0.000542649024751021
-0.000923344739076182
-0.00122865020917079
-0.00154859004066515
-0.00184814692991123
-0.00218353330936008
-0.00242454677120871
-0.00255099688490118
-0.00254352828247675
-0.00244000386758008
-0.00259858281358547
-0.00275366791196982
-0.00290451576209336
-0.00291727748474219
-0.00311687130237659
-0.00320740989357848
-0.00324713986301107
-0.00315584689758948
-0.00317774471820918
-0.00305708981458084
-0.00283829036139994
-0.00280254612258108
-0.00263981645522083
-0.00238719387156245
-0.002344028130772
-0.00242938888283019
-0.0023324818772214
-0.00203827094396961
-0.00194909682823735
-0.00193942716097672
-0.00186924408911654
-0.0016886969892041
-0.00145134593821837
-0.00139556237829902
-0.00131848726818402
-0.00129179766753366
-0.00123408382084701
-0.00103454059550093
-0.000733662595083989
-0.000445950179626015
-0.000290595273218309
-2.80356897703511e-05
4.02437777835699e-05
0.000199880761201472
0.000381438135119106
0.00055207947569667
0.000713262329929883
0.000952634166144846
0.00126237859428459
0.00152914802310879
0.00162104421674286
0.00169813558132347
0.00185502173104913
0.00220480695491153
0.00260504272735962
0.00310302980818958
0.00362975578340601
0.00393916484953185
0.00436258915890624
0.00509598081954296
0.00567258182272098
0.00577217802380236
0.00503528909591423
0.00366379669792452
0.00210636021100059
0.00080343260862402
-0.000559400210670815
-0.00168940721003044
-0.00339314659902839
-0.00402940522902028
-0.00493850732130148
-0.00645001220489311
-0.00703426444531089
-0.00731684705617618
-0.00689031003525218
-0.00808136768878397
-0.00902664904160339
-0.0102676740201672
-0.0134154064435514
-0.0162098904599806
-0.020973760103008
-0.0282092230195614
-0.0296098632471248
-0.0360612288404521
-0.0303776261017755
-0.00319196076287671
0.0322133895446479
0.114935985039277
0.209018357520152
0.178463427626515
0.16471727658889
0.178795038367714
0.178902364500669
0.0826443088024443
0.0147454512999924
-7.0694218972959e-05
-0.00203945841139019
-0.00149402153351004
-0.000944395002734811
7.72201017730689e-05
0.000799271602225633
0.00179020792131369
0.00263847687899224
0.00323936476951226
0.00322900875434462
0.00321288653966316
0.00235862798805102
0.00191095184241832
0.00130707625677098
0.000617671780931499
0.000640408308032181
0.000579862781344339
0.000520354747680282
0.000733009128224501
0.00100586605660485
0.0014753522014354
0.00164776122366917
0.0012083095553943
0.000643369089055681
0.000174797158636718
-0.000284566276944777
-0.000577736755621819
-0.000811736757159764
-0.00105131101592144
-0.00125936507153305
-0.0015206385139999
-0.00179565476746423
-0.00187435797402211
-0.00192786579440825
-0.00184604728994832
-0.00195960478928236
-0.00209688439432138
-0.00224929091897561
-0.00231841689585569
-0.00244709441212746
-0.00255907446933779
-0.00275089823102146
-0.00269014665866216
-0.00267764728698261
-0.00263414667268455
-0.00246103481474248
-0.00239560180612635
-0.00225155628142381
-0.00203655634689263
-0.00200773415805094
-0.00213023892807975
-0.00205797119035005
-0.00178588302155036
-0.0017139972748497
-0.00170876910548104
-0.00164952010580302
-0.00152716028668609
-0.00132709903268483
-0.00128433962805384
-0.00120950086905672
-0.00116409253203431
-0.00110996092410393
-0.000971219104279788
-0.000661307765341942
-0.00040548936372105
-0.000314386861131422
-8.31374369499047e-05
-1.01334181859458e-05
0.000152532173732312
0.000364772958044792
0.000482474762948522
0.000622491690299343
0.000827392464377583
0.00113605946521909
0.00140579248709204
0.00150158478620052
0.00160428284062076
0.00174831509889877
0.00206231919609025
0.00244511133942138
0.00292616822808914
0.00342343181336297
0.0037634166609094
0.00420621257228363
0.00488687187018483
0.0054971458075811
0.00567209285670101
0.00517265620863408
0.00393835195741618
0.00247721214140909
0.00115774966161568
-8.9292342731302e-05
-0.00118205048133456
-0.00304956894352075
-0.00358248115123918
-0.00440364335660559
-0.00597028041274884
-0.00650321110867161
-0.00702167117253339
-0.0067205203575208
-0.00785635981174219
-0.00878986784406672
-0.0101770054218715
-0.0131680540391086
-0.0164877012536765
-0.0203295517601483
-0.0270651943773175
-0.0279651272823109
-0.0331819623259609
-0.0273778716117137
-0.00498861122079756
0.0182545277296856
0.0689709798878672
0.164127252030664
0.150985198486758
0.15204228857093
0.171015483221321
0.193530015256792
0.110207448717472
0.0244257442887101
0.00206412818384536
-0.00124533056620897
-0.00129879578398679
-0.00090925629007563
2.80168901463365e-05
0.000750382138224444
0.00171792281956173
0.00243854187174302
0.00301923222653375
0.00294366664816576
0.00291936480745193
0.00208386643597957
0.00169834183228729
0.00110858613202517
0.000575996935135529
0.000585360492812623
0.000494279643374541
0.000481443535965566
0.000691672112495135
0.000928330747804871
0.00128263989660124
0.00138117964129786
0.00111194538057768
0.000733372904397924
0.000397941853332234
5.02175820581348e-05
-0.000174130176303456
-0.000369723350918351
-0.0005472530278701
-0.000672401940280562
-0.000872768799572372
-0.001171989215863
-0.00122949538299893
-0.00134111586633255
-0.00127636089123731
-0.00133067664986295
-0.00145973453184414
-0.00161512062006086
-0.00174995282152229
-0.00179873820038315
-0.00191988099129684
-0.00221721173495091
-0.00221052459290599
-0.00217568821982244
-0.00220560052650018
-0.00206520242617752
-0.00198645984197684
-0.00187523648976774
-0.00168834483294609
-0.00166500725573821
-0.00179364090756141
-0.00175108248396274
-0.0015226029265593
-0.00145854759628404
-0.00146234235175731
-0.00141248041795906
-0.0013315272574185
-0.00117908094631598
-0.00114523117010105
-0.00106300346209921
-0.00100676977892816
-0.000942983246932841
-0.000864901724338285
-0.000552240072463901
-0.000323768916100641
-0.000285937090411749
-0.000103088391563422
-2.5861917898298e-05
0.00013660488155509
0.000371109657574291
0.000453495716300155
0.000570019931314456
0.000748245676798843
0.00104412676758431
0.00130755782042424
0.00141680715906223
0.00153232964591457
0.00167581963217154
0.00195820553755401
0.00231213637466126
0.00276916569747863
0.00320820660524127
0.00357118030187218
0.00403528654823008
0.00465414581509609
0.00526007310510953
0.0054924612199607
0.00517710895246085
0.00409970022116877
0.00279555836294514
0.00149234107246319
0.000373262623817769
-0.000675633944817654
-0.00240778102250429
-0.00306371058911715
-0.00380138652036613
-0.00536756770599068
-0.0057434218212637
-0.00651774189821755
-0.00629469817004775
-0.00733333122248752
-0.00831496573660328
-0.00974219931755489
-0.0123069006467266
-0.0156207090738599
-0.0190383657906442
-0.0248405734800273
-0.0262247188861325
-0.0294660299579957
-0.0241859975906718
-0.00552496707814046
0.0115351232771441
0.0399933001497794
0.115700208058835
0.118467065582822
0.132219893847553
0.156698149142178
0.196563564676512
0.136948954209403
0.037565650700261
0.00510581505906613
-0.000241385604804484
-0.000933114379568133
-0.000809708453315343
1.61025801294545e-05
0.000686161684438462
0.00160776502987642
0.00222213747418569
0.00274750725273912
0.00267621026452805
0.00246113378480732
0.0018459343002832
0.00151348559565164
0.000950724774629782
0.000553856818549141
0.000528999338060643
0.0004153329126115
0.000447591213863638
0.000654344904170464
0.000863027629265009
0.00113510142617714
0.00121745290766107
0.00111315401271917
0.000899788406812022
0.000672651216911193
0.000422794268482312
0.000254148089929722
7.16375737263647e-05
-6.46795105879973e-05
-0.00012294549242785
-0.000265075641345635
-0.000560877471603539
-0.000626181181361906
-0.000780219942237503
-0.000759146471584147
-0.00074388501376178
-0.000860720098861355
-0.001020212786138
-0.00122891379154179
-0.00121014368303966
-0.00131827475698029
-0.00166283777825705
-0.00172511011321933
-0.00168483049714158
-0.00178413988192659
-0.00166831240164904
-0.00157786670536059
-0.00150516497303556
-0.00134118719188965
-0.00132426903561063
-0.00143764902741717
-0.00143064322180199
-0.0012617848484771
-0.00119522025203486
-0.00120830316543049
-0.0011729115749738
-0.00112011067943337
-0.00101845338909647
-0.00099629394592969
-0.00091375013774951
-0.000834327002520351
-0.000757653407129073
-0.000729210856624719
-0.000440223194706972
-0.000222987280851098
-0.000224622873386571
-9.90423192684324e-05
-1.68012714679411e-05
0.000141836958741051
0.000381571218512553
0.000438469286826972
0.000539363882083119
0.000702020981877171
0.000970762993579289
0.00121296051996904
0.00135325332187937
0.00147863890128308
0.00161697399332113
0.00187307596356536
0.00220332994076075
0.00262441578476295
0.00299045808262158
0.00336859825872479
0.00384379259779874
0.00442597812881298
0.00498545571133548
0.00525631359532881
0.00508711447306002
0.00417034349541237
0.00306116257096749
0.00178615713345921
0.00081783103050095
-0.000245600437668955
-0.0017332868338734
-0.00252641944267401
-0.00317337563067992
-0.0047287786073335
-0.00493445263233201
-0.00561132364042286
-0.00582516073136918
-0.00664626344408951
-0.00764359208132305
-0.00899913890505225
-0.0112983190748591
-0.0144978857195796
-0.017369901022604
-0.0224816328606073
-0.02360211362908
-0.0261585366251649
-0.0213023597023561
-0.00569311710067594
0.00789247880759699
0.0239209393649299
0.0761251364608889
0.0876026281868926
0.109129572356484
0.138338926767059
0.189337475310637
0.160682202580814
0.054575656525479
0.00935081493169271
0.00105287587071103
-0.000427790939767514
-0.000641987731180224
5.02960914561328e-05
0.000674500648495324
0.00148865132187491
0.00203655356982313
0.00242781611468736
0.00242969602762864
0.00200416973026491
0.0018069881714462
0.00134363580161907
0.0008219966990071
0.000511862928471257
0.000479440084137943
0.000359656031374157
0.000430339112214268
0.000622063240129555
0.000812507550348755
0.00103507758246294
0.0011475711349031
0.00118768041382332
0.00111142519752835
0.000988990031866414
0.000827853191101785
0.000669907287983836
0.000496201542577986
0.00038658203374485
0.00037644610330472
0.000276958795303851
-1.22504627875632e-06
-6.61522444502958e-05
-0.000243687081818974
-0.000294202129612885
-0.000213507078191646
-0.000302681309976117
-0.000452510315071822
-0.000731949947602447
-0.000699319369232475
-0.000768242543027146
-0.00110728611673495
-0.00124479323990245
-0.00119784696057388
-0.00136605585479133
-0.00128259831558483
-0.00117242231958599
-0.0011582107659778
-0.00101983813251619
-0.000988868223433758
-0.0010755836491269
-0.00110233553957376
-0.00100171339618908
-0.000946737906278924
-0.000954385182993962
-0.000935808492286778
-0.000901995668514912
-0.000849933491971307
-0.000833905363790714
-0.000759087069367568
-0.000666879425713942
-0.000568837314639671
-0.000571694752365603
-0.000315875557864945
-0.000113064575682516
-0.000140891361318875
-8.02097531582705e-05
2.11649192625543e-05
0.000173018233439251
0.000391458135574622
0.00042798177467566
0.000522743714153598
0.000687645784087322
0.000910222852613171
0.00112206338475442
0.00129634289432736
0.00145386346731005
0.00157419434552834
0.00179766316792911
0.00211796199157491
0.00249440893686708
0.00279571346511052
0.00316814078050088
0.00365436173081388
0.00419458187554597
0.00469452662734321
0.00498445614936444
0.00492721941793607
0.00416603777475716
0.00326283518487444
0.00206872177995901
0.00118448315379507
0.000142526616024236
-0.00113003447487704
-0.00198476345926338
-0.0025445407988662
-0.00370326371189849
-0.00424777607018746
-0.00454074900440292
-0.005335385359056
-0.00579333102900061
-0.00676807084723473
-0.00790527072429492
-0.0101523511210871
-0.0133039801823641
-0.015525924223056
-0.0200547114033367
-0.020758580764555
-0.0231037743576644
-0.0185977762351894
-0.00571120263246405
0.00552842564593289
0.0152944805236774
0.048292352901814
0.0621813825316992
0.0857908932120967
0.118673845178106
0.174403585880655
0.179422313511816
0.0749588142346435
0.0151840344923207
0.002852779026624
0.000242293169655493
-0.000328455336794381
0.000151515250840925
0.0007125461524358
0.00136696296182959
0.00188345301231364
0.00215205736418827
0.00220763178005635
0.00172305186208146
0.00176646749973595
0.00111380929319059
0.000719139307673115
0.000464141249611646
0.000439111666350292
0.00031867330567993
0.000422944335137064
0.000587542965287821
0.000786735960263992
0.00097473086358334
0.00114855016579683
0.00130935878417905
0.00134254179100139
0.00130860741736576
0.00122191327071675
0.00107251538607616
0.000890815992055691
0.000798579378705066
0.00083342940867163
0.000777636836661551
0.000518190091086957
0.000437201022726099
0.000270986309002679
0.000147259552772709
0.000264392675507856
0.000210560727077114
7.26744165828112e-05
-0.000223004523244061
-0.00023641683346476
-0.000273922553031567
-0.000577170851013187
-0.00077067315304147
-0.000731934086311241
-0.000941041149039725
-0.000904613958859411
-0.000762514608778669
-0.000800853750764411
-0.000703890377249729
-0.000657965020419697
-0.00071233036963466
-0.000762960241898846
-0.000719546954109181
-0.00068884378312769
-0.0006959774337258
-0.000702202831717165
-0.000677369479970842
-0.000665560830013024
-0.000655693571132923
-0.000594535969996971
-0.000514080759140945
-0.000390038661964801
-0.000396389124797996
-0.00018180886268749
3.36380151403867e-06
-3.662924299092e-05
-3.76505315264008e-05
8.54864491749859e-05
0.000225093258389768
0.00041636838198542
0.000432390548652131
0.000521374618856112
0.00069681260622812
0.000871044935125728
0.00104949766450094
0.00123881584203788
0.00143977320277506
0.00155334170368467
0.00174141486283357
0.00205309097563367
0.0023830246311777
0.00264090454211777
0.00298448156022987
0.00347949316899556
0.00397142985676119
0.00443120528716622
0.00471073789867091
0.00473022419931235
0.00413348259180387
0.0033998652756614
0.00233841894077455
0.00150538345896321
0.000506641656716686
-0.000608045279889017
-0.00146453053406399
-0.00223815061950747
-0.00264680197667278
-0.00370292256907662