/*--------------------------------*- C++ -*----------------------------------*\
  =========                 |
  \\      /  F ield         | OpenFOAM: The Open Source CFD Toolbox
   \\    /   O peration     | Website:  https://openfoam.org
    \\  /    A nd           | Version:  7
     \\/     M anipulation  |
\*---------------------------------------------------------------------------*/
FoamFile
{
    version     2.0;
    format      ascii;
    class       volScalarField;
    location    "2000";
    object      PkBoussinesq;
}
// * * * * * * * * * * * * * * * * * * * * * * * * * * * * * * * * * * * * * //

dimensions      [0 2 -3 0 0 0 0];

internalField   nonuniform List<scalar> 
15600
(
0.000101816403836999
0.000212240627769846
8.63784750129896e-06
2.15252936546197e-06
8.18561288832382e-06
1.05845213553496e-05
5.77903360581339e-06
2.31968142798263e-06
1.70417886401947e-06
1.42751592254647e-06
8.39487774061812e-07
7.72674166642952e-07
1.52900366467813e-06
2.43225412855451e-06
3.60326220757383e-06
4.73431531500639e-06
8.8051568390253e-06
2.67977918277874e-05
4.19391840119221e-05
8.86872737869582e-05
0.000125685882314141
0.000189517162506429
0.000239642559715872
0.000292106753742832
0.000309495295251108
0.000337877043865426
0.000328384467185771
0.000386174955302475
0.000543129995062605
0.000851948279516079
0.00108912775726912
0.00134800208081371
0.00157070334979377
0.00182319669288081
0.00196563882463634
0.00201187405108162
0.00195759234143885
0.00193452082145011
0.00189136709089346
0.00177066413806518
0.00165239924525578
0.00157591453104518
0.00136653357036436
0.00122093585009946
0.00107581372410488
0.000925436046400694
0.000804125709719333
0.00072140758803554
0.000550354451660079
0.000442942083935551
0.000349639097605851
0.000291199050701629
0.000194277580724487
0.000129625209235571
8.90124301716234e-05
5.77290377744476e-05
3.48417864917116e-05
1.68300058488721e-05
4.70793132147043e-06
9.39764224326396e-08
1.8570947162307e-06
1.06812631563341e-05
2.37178406384156e-05
3.41608292794686e-05
5.46773248612643e-05
8.76179876152659e-05
0.000116079339542423
0.000154919158882404
0.000135228142213706
0.000175375500020099
0.000235429105529623
0.000262754646898183
0.000203796198407785
0.000259651527480737
0.000316619103661725
0.000235434477759996
0.000317476059756855
0.00033678223080968
0.00030330149333228
0.000344039755966865
0.000312129008058978
0.000236012655734176
0.000326356066990638
0.000306460831019655
0.000255028401947617
0.00022201511929498
0.000208822908635692
0.000211293159208227
0.000132136784061817
0.000125986876848102
7.00390929968156e-05
3.9722458877889e-05
2.302754861488e-05
2.39090721434371e-05
4.61742707459862e-05
8.82163365950293e-05
0.000147681417377383
0.000224854208505068
0.000319212714085769
0.0003784037860853
0.000484677941894101
0.000551991898551199
0.000502641544411262
0.000378967768683911
0.000363699358945352
0.000518765838404902
0.000691410875670474
0.000784883262718936
0.000611863323722781
0.000789218039339508
0.00161548671845827
0.00193077797343346
0.00216590745510375
0.00399426435407334
0.00576252731091488
0.00379691970616881
0.00158804473673638
0.000982338725509689
0.000299777470519195
0.000104010185182672
0.0108615603051066
0.0150823203833061
0.00420547457343327
1.97121384869993e-05
0.00044610798929339
0.000375330260054065
0.000214519024072721
0.000130364405270725
8.51365514319696e-05
6.74870982869176e-05
6.33804914470638e-05
6.98912694883221e-05
9.29867915485464e-05
0.000141606042115972
0.000234388514570862
0.000372206977220528
0.000558490260534091
0.000866377898851255
0.00111809887462854
0.00146093510673558
0.00178847257441076
0.00202142806397162
0.00223500254512375
0.00242318649152624
0.00254053669204732
0.00262113743340731
0.0026993880548979
0.00316325184750614
0.00443981473374769
0.00592478234389249
0.00714312128672065
0.00815305552678509
0.00876116973094367
0.00935470529551012
0.00962817765884665
0.00957177021476423
0.00918459046824326
0.00886913605068472
0.00829632386501585
0.00762983170384143
0.00703464377676029
0.00641848270211354
0.00563822238200363
0.00486657357864552
0.00417116775855735
0.00360240067481371
0.00292661755819674
0.00243000591825762
0.00191027316130026
0.0013841015479897
0.000993164126475913
0.000719081054498416
0.000432501679146467
0.000235879788068717
0.00011416136388737
3.98744514493557e-05
7.72438385868308e-06
1.46808472079031e-05
5.60120561913104e-05
0.000129544090882349
0.000235700475145618
0.000366687819539261
0.000525107719649722
0.000702641684003693
0.000880554217168398
0.00106553996179766
0.00127097098629199
0.00152113106539376
0.00174959341425652
0.00195114164138986
0.00215368988814444
0.00230697065852696
0.00244901374441697
0.00256340133161021
0.00273373825767314
0.00283901878171869
0.00290334155662349
0.00299558640920357
0.00304138748931003
0.00306337856598609
0.00303643125052965
0.00307730144447218
0.00299317283042619
0.00290554414641612
0.00279469015358484
0.00264214188955516
0.00242959977148301
0.00213351246434536
0.00195010845028977
0.00159640079170452
0.00131447825551927
0.000949451942234076
0.000707213997600709
0.000726174400054773
0.000914290536936456
0.00123772913981796
0.00171047374126408
0.0024305870890028
0.0034450984383351
0.00489544566734903
0.00674473760432687
0.00883012743146361
0.0120377517044316
0.0142954974980216
0.0179358320050594
0.0210074874933242
0.0246251391227583
0.0279022827932211
0.0337370923113754
0.0374693747492482
0.0466174022507767
0.0625592823505658
0.0903126806212292
0.115575163463073
0.172263268454999
0.253988900887774
0.210600685080697
0.0974547911664772
0.0244940238771411
0.0100787369781415
0.0955041816222742
0.105557569458885
0.0511735905788302
0.00339323166958501
0.000582582289666714
0.00131539435046079
0.000808570308055674
0.000503286166824771
0.00036804329741877
0.000312208129547702
0.00031051779701606
0.000372012860149192
0.000504208371700547
0.000743822432375505
0.00111215353434897
0.00160106684745463
0.00205759470039908
0.00274641999438274
0.00309540737487149
0.00348661536503233
0.00357388939318358
0.00368322547153283
0.00382603349958874
0.00392110171174595
0.00404593971814132
0.00423901346007192
0.00472429533997453
0.00557653363602749
0.00661576987423007
0.00732383334719196
0.00778547091482433
0.0077322616264388
0.00778316731786797
0.00763918283916831
0.00729729571321165
0.00693671650362541
0.00644120550555033
0.00560835263046112
0.00498391650764318
0.0046829716550648
0.00386620201416212
0.00355594367867474
0.00291800231887886
0.00255831518833644
0.00194800476261709
0.00157468391665257
0.00126507313885488
0.00084608708579911
0.000566833247302977
0.000382873625707257
0.000217415277655803
8.5769325677246e-05
4.32468044467507e-05
2.80480177829339e-05
4.71446267998182e-05
0.00010941241576523
0.000197695046152792
0.000361250635176996
0.000477448179025823
0.000636604773387933
0.000866161614540821
0.00109411011680607
0.00130612320892204
0.0015279923788781
0.00180419307326947
0.0020672683813993
0.00236311277177855
0.00265598134582751
0.00290343772911356
0.00325941519791523
0.0035357062987843
0.00371030576990919
0.00391512718062551
0.00421989202112309
0.00440079367261127
0.00454956210329605
0.00480455476245519
0.0049152708551803
0.00509756499455546
0.00516254165475376
0.0053430813589893
0.00531249360137843
0.00534283287672752
0.00537606159383673
0.00530812462649666
0.0051903905019057
0.00503672221442748
0.0047883524545883
0.00453176279672501
0.00419257349240961
0.0037509421454413
0.00325715491996894
0.0028766894404581
0.00271989110500137
0.00278955457063246
0.00306775701170153
0.00360196594489105
0.00445893755126054
0.00557701120782511
0.00711844685971201
0.00998098583371039
0.0132701625645327
0.0179379979362449
0.0224355566166996
0.029741516322454
0.0370266522281493
0.0435155321372839
0.0517776728099352
0.0656492127254533
0.0784494980949899
0.0919369633976794
0.131097238615877
0.19393146439819
0.315152435331415
0.448682604117874
0.516258588366942
0.498065957151858
0.415123953869096
0.210720581892909
0.108027009048967
0.254600561837286
0.241006009376409
0.151955068718469
0.0316153404572764
0.000164016525540256
0.00170114341610667
0.00167192157345749
0.00117399394284739
0.000955642669938717
0.000852540064239578
0.00086118725968206
0.00103047176121057
0.00130918358250152
0.00175409463120768
0.0023216074354337
0.00293017428158675
0.0033209613543038
0.00364916771803257
0.00374588146563579
0.00377028566019886
0.00349312672061426
0.00345047331397098
0.00338502104471346
0.00343235938510531
0.00361721891648708
0.00410172295416391
0.0047695899852249
0.00534598261498336
0.00536261346261621
0.00515959548398962
0.00479138871476093
0.00445659426478925
0.00408890972595121
0.00362505987639546
0.00325889807909609
0.00289836130435465
0.00259085996374539
0.00220754454770413
0.00180780227926328
0.00153343530900965
0.00127062115523744
0.0010219061310743
0.000849934463630589
0.00065468343935979
0.000476822617717118
0.000340821860492404
0.000233279356869742
0.000137575656463306
8.71221340859338e-05
8.10022437113874e-05
8.26740473882817e-05
0.000122019607473078
0.000187878313108306
0.000242285019442816
0.000320702389048228
0.000435781677996432
0.000581968490335701
0.000774477643141716
0.000893984543403177
0.00104356466003032
0.00124935627558615
0.00144603347960531
0.00160991371265607
0.00179231671197897
0.00201479171080991
0.00223208849234434
0.00246433668021752
0.00266579089169826
0.00288420678558394
0.00313670611896102
0.00330965514337674
0.00350101836702544
0.00371536684343126
0.00393505321165168
0.00411101520874172
0.00426638328367793
0.00445043257295618
0.00461966420885732
0.00475422848848716
0.00493855399745404
0.00510970427169869
0.00515177124890447
0.00527987552528306
0.00531282108801241
0.00527146099887898
0.00528804735086933
0.00527918747758757
0.00524490081145754
0.0051362884318566
0.00496354726336895
0.00477626185342009
0.00455136201491379
0.00436530783613453
0.00409808696143122
0.00387557335391635
0.00382086968248828
0.00405072444768552
0.0045407635354834
0.00525209955434082
0.00617175784874076
0.00811485029753922
0.010124094414094
0.0127087081486376
0.0166804916528885
0.0213803600701165
0.027317981108215
0.0336236781299832
0.0423625255066138
0.0547907214770994
0.0798572422779142
0.106619016593606
0.137484066935986
0.175940406945377
0.273364890172935
0.26474852947866
0.286678748246725
0.354308014417095
0.47136620203368
0.46218788681173
0.321637840171879
0.371811854495829
0.324302518724872
0.235289764979461
0.0973923882573252
0.00334863811837834
0.00106623378930472
0.00244035805628924
0.00211282917683389
0.00179495157347259
0.00161517823359329
0.00165663090654297
0.00189622175706271
0.00223950254373661
0.00272936895509224
0.00315823626246996
0.00350705810252677
0.00362828170871021
0.00325396943984943
0.00313550760334219
0.0028821321979258
0.00261161697507757
0.00260404284580736
0.00246818363752888
0.00256074523013646
0.00285618417697727
0.00334005307600012
0.00390214466272016
0.00411653143036392
0.00356128336436456
0.00297282778029732
0.00248063795589202
0.00205727769011256
0.00170060565454596
0.00140243104248967
0.00117269324387198
0.000956085853234534
0.000797224926119116
0.000616437323130129
0.00050176999007902
0.000373604394364477
0.000278578356897656
0.000223611344201354
0.00018922498156232
0.000161741266705147
0.000137335228343374
0.000144958061084734
0.000151475832456439
0.000162776137567726
0.000208225113473038
0.000272221002777379
0.000316637140523029
0.000411644463076781
0.000502446688563215
0.000554229558979628
0.000641258180948361
0.000747997873585394
0.000895268403534101
0.00105838609830279
0.00116344586506776
0.00128786037310643
0.00143878577340388
0.00158388085887534
0.00169260354141326
0.00183873101847583
0.00198446595322012
0.00216197659170726
0.00232942085255413
0.00246440873675987
0.00262855974518381
0.00280995853104891
0.00289404691058197
0.00303485222118564
0.0032273981677866
0.00339336502572073
0.00352251815319744
0.00363974078415561
0.00373057301968155
0.00388468662878865
0.00401773986871398
0.00416870694710937
0.00433082918775441
0.00441521414526419
0.00447283431701646
0.00454078249581617
0.0045614380920634
0.00467328130402001
0.00472887608647922
0.00474122585852327
0.00476488911799977
0.00478052571832191
0.00480924740512886
0.00484723646993212
0.00492440390157517
0.004726202711199
0.00439322687461987
0.00420719734465779
0.00420666628976105
0.00441224599369523
0.00483882135836293
0.00522229120376828
0.0060700782011579
0.00715434363353377
0.0080710338310992
0.0110952785490022
0.0131836587274045
0.0169031554316648
0.0216885335408521
0.0268219852656682
0.0335231740036129
0.0512432249117949
0.0722994493100437
0.10115638827111
0.119712743485212
0.135347854848608
0.0839208025904953
0.0849902130521653
0.137903916650607
0.292940612244882
0.493883740465022
0.473759309510046
0.399230094702673
0.340734878124561
0.270086188465235
0.173373362282443
0.0168821089116363
0.000279939815330037
0.00233553550483608
0.00263140297259945
0.00254521187359807
0.0023358519260517
0.00244058577369812
0.0026230055232024
0.00290035253863133
0.00325371854142184
0.00337726623672435
0.00337323977074978
0.00317339874166302
0.00254839483573907
0.00237159646575266
0.00199387714332004
0.00181832340908195
0.00177936710751265
0.00178531083710989
0.00192680216517423
0.00218982023018861
0.00257086012976985
0.00295568193176855
0.00286902899399891
0.0021675860823635
0.00154307144106935
0.00112048846343411
0.000806039484947038
0.000588842728176299
0.000420018925553894
0.000311306226220606
0.000233671481633395
0.000208085950240959
0.000175060206051521
0.00016212829564322
0.000140717818727708
0.000134746047631954
0.00016828384455166
0.00020947065257254
0.000242922967120038
0.000272708045349014
0.000333524610283459
0.000371580771872989
0.000414440508544705
0.000486538035318378
0.000559258788229392
0.000605296652137039
0.000721331589377996
0.000800985311669235
0.000840705318151876
0.00091213310711201
0.000992529038142562
0.00112136284728896
0.00125551032292221
0.00134827264596457
0.00143637318997243
0.00155103183996967
0.0016350994575867
0.00171432485181103
0.00183271244963327
0.00194028929612637
0.00208925688758692
0.00220406716674704
0.0022879889821909
0.00239913727780542
0.00252397289480645
0.00255382495101263
0.00265369558748746
0.00280078916655696
0.00292806412679398
0.00301877398332536
0.00311213538697645
0.00317019103782398
0.00329056867238206
0.00340091954606705
0.00353610556731645
0.00365277003591659
0.00373512906118712
0.00377914166744421
0.00383618664056963
0.00387272212703547
0.00400079833271758
0.00409006121422206
0.00415379022963651
0.00423729471866869
0.00434373578710268
0.00449368673625269
0.00470479581470087
0.00494188649589883
0.00492423739086238
0.00465637849113442
0.00447385780209159
0.00438908154200114
0.00442430567417072
0.00452295342098862
0.00475841018452033
0.00506539372474326
0.00588166326534314
0.00607167418766969
0.00775965277353567
0.00884996589322577
0.0108612338480234
0.0136836599703975
0.0165597158537608
0.0195264699429986
0.0291436179146713
0.0287351611399778
0.0440057816739374
0.0402306950863531
0.0397596733643341
0.029326979025219
0.0180848275374079
0.0369369364933788
0.137230121545691
0.357565371605009
0.475455976732746
0.36043162845773
0.313064551380227
0.268198389080729
0.226879902029378
0.044892554921217
0.000811883119070752
0.00144757747545956
0.00261050625959418
0.00288382744634896
0.002854432399619
0.00290741964728437
0.00306497999780538
0.00313173414326334
0.00324786224863674
0.00314464847819013
0.0028977740959458
0.00253186624588081
0.00193777772582419
0.00172029403880467
0.00135356553778649
0.00126040284886441
0.00126491050588788
0.00130098386289964
0.00142487677919551
0.00161962890318106
0.00191801850506281
0.00213159493209532
0.0018797475401645
0.00120534016971222
0.000686528757487333
0.000387750104088505
0.000208770386821283
0.000115149045623779
6.66356880890847e-05
6.191653437224e-05
9.15756111163252e-05
0.000139598654414266
0.000186620560774397
0.000241227408803399
0.000271853416214566
0.00032392174308081
0.000397068643854865
0.000474672263687538
0.000528986336948129
0.00058310073721885
0.000657911092801212
0.000680420143304676
0.000715423118369782
0.000794493869459925
0.000857098580506414
0.0008907322098364
0.00100869734062707
0.00105839610877707
0.00109983193669018
0.00114749624134823
0.00119725112084745
0.00130650008514047
0.00140350775362655
0.00148187765103256
0.00154119912045852
0.00162404278813915
0.00166814139880061
0.00172987746261449
0.00181343839035583
0.00190161807685822
0.00201891235908746
0.00210002661413913
0.0021540722786453
0.00220842321838857
0.00228856497839997
0.00228316256276807
0.00234842972246702
0.00244895135226381
0.00254810980859742
0.00262347125314897
0.00269807644493108
0.00271800003983565
0.00281478772333044
0.00290454093085014
0.00302423560073755
0.00310081727369087
0.00317566379020214
0.00320818974485804
0.00324906342066692
0.00328844693002834
0.00339476479427069
0.00348677203028995
0.00359446797547087
0.00371910560044982
0.00387785972851632
0.00408755105248711
0.00440692750768598
0.00472029803104553
0.00488094746070236
0.00475323093173816
0.00460334421703936
0.0045049547500808
0.00447736858995993
0.0045039097628877
0.00461684119286282
0.00462964883051071
0.00522496753411634
0.0052538621708434
0.00615836610304217
0.00673154067849672
0.00778660356996223
0.00907373516520131
0.0113135250754334
0.013560670516326
0.0174990091081167
0.0197284702383085
0.021160181937763
0.01935123429781
0.0182369799622176
0.0146964764765464
0.00559872888439424
0.00513688994619877
0.0534530500792077
0.208735892726873
0.381209589273807
0.292019598544527
0.265389298045381
0.245520728624069
0.247969869406528
0.0851265535978093
0.00478565279339321
0.000485996013696407
0.00225703563013429
0.00284464206988503
0.00304892189864179
0.00298527941873957
0.00313131285143252
0.0030762848601317
0.00301283019905259
0.00266746962931197
0.00232289394169459
0.00192908941768588
0.00141333573360237
0.00121462889159416
0.000929511578027424
0.000868332250553052
0.00087845093616873
0.000924847823474807
0.00101773988228558
0.00117861024042705
0.001385715406317
0.00146709860993045
0.00116030180058914
0.00059577544893816
0.000232166278421426
6.52343878424622e-05
8.75661422110272e-06
1.58338517762848e-05
6.24244994129819e-05
0.000147474241194442
0.000250586948881534
0.000333741315483447
0.000415048552188055
0.000515523274846391
0.000570926982299191
0.000656321732012224
0.000750590400877257
0.000831907831819978
0.000894547946335808
0.000957627236089992
0.0010263311283221
0.00101283901101714
0.00102182673422753
0.00109821186188518
0.00114288328862712
0.00116574619099482
0.00127061987628276
0.0012843313658382
0.00133198098801829
0.00135292601996348
0.00137513510329078
0.00147299654902337
0.00151806797269003
0.00157795964040571
0.00161511566834277
0.00166986537730136
0.00169420440134309
0.00174638174498683
0.00179233287539053
0.00186953319692699
0.00195655070135681
0.00201620087751707
0.00204877060047204
0.00204907778672308
0.00209949686613967
0.00206084508631463
0.00209396355537178
0.0021581166450285
0.00223685025948978
0.00230716188430158
0.00235900374988425
0.00235506679174421
0.0024384874291216
0.00251024057125835
0.00260855818561517
0.00266340623738171
0.00272518941396712
0.00274706084953438
0.00277806919826125
0.00280721476324775
0.00288188938745942
0.00296002932261714
0.003097663128033
0.00324825596600109
0.00343917224949436
0.00367966563726662
0.00405698057825754
0.00440464840559012
0.00469018238033734
0.00473115948879053
0.00466383684328732
0.00454334189246935
0.00452710840672246
0.00453196197577974
0.00467001909326392
0.00454933222996032
0.00491446747202134
0.00485363035254754
0.00541018720460175
0.00569497720343152
0.00620170665721361
0.0073092467630332
0.00879164344780675
0.0103490795043625
0.0121866729040522
0.0145766480847673
0.0148871950677683
0.0149896621166025
0.0135365854817997
0.0122547246565394
0.00761823165478314
0.000201332213176061
0.0168496825223075
0.106561551716042
0.266571646417122
0.217926733726022
0.212733587493327
0.212856523811696
0.24277776813525
0.129079631225397
0.0139495990600284
0.000163830007131795
0.00141660479942586
0.00252814384181024
0.00279074868412334
0.00285146339576854
0.00288076421231242
0.00279415106116849
0.0025848525793391
0.00213519402653521
0.00179014216329497
0.00140566016702724
0.000978726018494406
0.000836115884119301
0.000628250984952364
0.000586637995520726
0.000602592799028948
0.000638606364183901
0.000720560068159353
0.000835292668641833
0.000963524524254175
0.000961911247631653
0.000666751442880964
0.000253311269215261
5.19762864635034e-05
9.97870075112723e-06
5.12918958091065e-05
0.0001383865285678
0.000251121147851264
0.000411107338914261
0.000554237347130901
0.000651961959319147
0.000747992448427843
0.000876083713197733
0.000943318972888694
0.00104035725312766
0.00114704860305719
0.00121345881680642
0.0012803942780938
0.00133917164533695
0.00138431736827136
0.0013430533947161
0.00133432842337643
0.00138714136466835
0.00140524732803542
0.0014277931037238
0.00151353099896465
0.00149427825404099
0.00153320671233298
0.00152897278196965
0.00153533011769111
0.00162344103424942
0.00160990139827938
0.00165432918001404
0.00168064375081945
0.00170145313718649
0.00172279397988577
0.00176106495837244
0.00177314286892251
0.0018537453939482
0.00191908366273165
0.00195806649687441
0.00195996685951066
0.00192190242331669
0.00194616057656913
0.00188613632891611
0.00189465067752371
0.00192350226104775
0.00199259176787611
0.00204597377354884
0.00207193491287552
0.0020785879771443
0.00215212008179292
0.00220475645868164
0.00227203086422925
0.00231095779612711
0.00236490184906726
0.00237443171174967
0.0023994968891108
0.00241972785326953
0.00246213287935631
0.00252609408942237
0.00267148392533134
0.00283767516004767
0.00304747738235299
0.00330956858037823
0.00368882815600772
0.00406459397038446
0.00443871968308012
0.00463468052248244
0.00466952637694506
0.00455636798301965
0.00457613004491874
0.00460886779027907
0.00475110352028074
0.00457805997444885
0.00479486638023407
0.00468793176053111
0.00508111111147177
0.00525079441259338
0.00547741519883686
0.00639266102028276
0.00745466240361982
0.00845073644167018
0.0102132503788783
0.0119132040845832
0.0130826677109488
0.0137914064947638
0.0142809180688076
0.0153277126773937
0.0125450906740717
0.00361516478436345
0.00371520878995711
0.0483329592833266
0.167967243810167
0.153363176209553
0.163393997179861
0.177162837653325
0.220917578275354
0.168332347081238
0.0284767049610106
0.00110800605453457
0.000631584638085239
0.00184596851810986
0.00235364405591225
0.00250695334484581
0.0024934228305574
0.00234625810404571
0.00207240725796555
0.00167331465342573
0.00130291597800756
0.000951148257930285
0.000679480827446225
0.000562236389987152
0.000417717693056847
0.000389401105485656
0.000402752043907191
0.000430198011460495
0.000491369721161535
0.000568396227452899
0.000642135018534821
0.000600556107886409
0.000352204252666391
0.000106113015656087
5.32301950197307e-05
0.000121397045568426
0.000239269755484838
0.000386507141009377
0.000544083374699041
0.000753338002548439
0.000916425710286264
0.00102393485365175
0.00113180706553188
0.00126984911272422
0.00134262992331356
0.00142650335440109
0.00154239770573688
0.00158896197054989
0.00165578013655026
0.00168657731079178
0.00170445372794818
0.00166578096615035
0.00165444568615164
0.00166455156982543
0.00164616879397595
0.00167671771347348
0.00174115648192088
0.00169514729074222
0.0017098564318714
0.00169784330849889
0.0016869369178957
0.00175978441211711
0.00169178395717947
0.00172130793207199
0.00174039021852072
0.00173006052643325
0.00175108529477334
0.00177183314707984
0.00176271146227937
0.00184597357502402
0.00188529330824109
0.00191038960901912
0.00187689252802092
0.00182684345692827
0.00181768573141539
0.00174970615684553
0.00173907165216558
0.00173813545537817
0.00179964986982621
0.00182551877720549
0.0018318608395561
0.00185591419841011
0.00191984686365382
0.00195166773491331
0.00197647769366098
0.00200947936274877
0.00207538487081991
0.00206417768260225
0.00207429342640058
0.00209748421565442
0.00211762593487879
0.00217112406480447
0.00229575469122959
0.00248069354724032
0.00270166593494265
0.00298809016695717
0.00333023845246965
0.00373406801278846
0.00418290462622672
0.00449320845842831
0.00461250585115509
0.00455342967179617
0.00460519901587321
0.00469381787962242
0.00483870118101555
0.00466602714078281
0.0047930929582859
0.00475082749934831
0.00491693940922402
0.00503336871446055
0.00531022968360288
0.00597399523773747
0.00679253185473918
0.00795450881078878
0.00946847895062588
0.0113196317596451
0.0126652287495021
0.0147965500939177
0.0163461654109662
0.0197044488237467
0.0178222080044717
0.00854043720052917
0.000730300464546497
0.0192488601989116
0.097838610486158
0.10211919861857
0.120518849725851
0.142984804940456
0.192463549353554
0.198882125565089
0.0481785077086728
0.0042810517365175
0.000173644634079988
0.00111350717226266
0.00183700210481309
0.00199670963678127
0.00199153669405835
0.00186101953577786
0.00156265557951853
0.00123723548635526
0.000892656112404071
0.000615794748075306
0.000489983581123288
0.000361248011041974
0.000260552738692642
0.00024252127883519
0.000254406782016483
0.000275756581829584
0.000317178587177345
0.000367204802902175
0.000410183717364361
0.00035360197612724
0.000176187780516034
9.59200791925943e-05
0.000176562689998056
0.000337466599539708
0.00051912916402226
0.00069209222003892
0.000882736750467126
0.00111659075371816
0.00128765241826564
0.00140713847541185
0.0015258075993015
0.0016664596316872
0.00174445168485825
0.00179512545736462
0.00191318988198733
0.00194551441483929
0.00201303746011183
0.00200148628376614
0.00199196342085374
0.00198216621744024
0.00197406917204972
0.00192958414023105
0.00188286404095856
0.00191403386595545
0.00195757700168931
0.00188795795993151
0.0018714709532775
0.00185282388916393
0.00183638105374403
0.00188335733235461
0.00177186773731534
0.00178832137144851
0.00178420878826664
0.00175888521935589
0.00177545175226291
0.00178557163294344
0.00176822889932041
0.00184437473610917
0.00184370532263375
0.00185097452816986
0.00179729656852935
0.00176033395577048
0.00170406618903966
0.00164209917336698
0.00161551457571207
0.00159186988008093
0.00164022619466961
0.0016347532067344
0.00163143749152446
0.0016610079973595
0.00171401518135972
0.00174160085279062
0.0017254207457732
0.00176444442084297
0.00184042546455072
0.00183051517590845
0.00181501370738807
0.00182977460216698
0.00183963884463365
0.00189301562222906
0.00200000547803256
0.00217108105053814
0.00239231116151437
0.00269012936381798
0.00300050593737485
0.00342365300236884
0.00392635337681179
0.0043263381705197
0.00451094379104134
0.00457279784163349
0.00460281481402958
0.00475792856644707
0.00491756499541819
0.00478114352891099
0.00486847756679975
0.0049770318073365
0.00493243962067477
0.00493190230937681
0.0053944707041505
0.00589557493686251
0.00657399717982794
0.00789930896937684
0.00928816662939444
0.0118126921672682
0.013285284606755
0.0166628792168962
0.0190521247750494
0.0242335987084983
0.0228928674020898
0.0129240639908704
0.00160291666808167
0.00656710096823099
0.0525243806539278
0.0645243938237693
0.0844016415754514
0.113027523209146
0.163575136073578
0.215686785909312
0.0718721202530181
0.0101541796947282
0.000419027852413695
0.000474137962174058
0.00119966131959796
0.00146162055084301
0.00148262742278852
0.00136719710274976
0.00111622263896871
0.000880986942747707
0.000601175848444714
0.000410096508806878
0.000343117068358
0.000200893743567157
0.00014742502289619
0.000135972940061851
0.000147630365057415
0.000163894810153958
0.00019157634088082
0.000225689082123758
0.000248433335890397
0.000198034379622716
0.000114808266621795
0.000180508285215614
0.000378395613089138
0.00060724656319265
0.000836971518486642
0.00101276641077221
0.00123054309187686
0.00147243201968924
0.00165542503066834
0.00179080114797809
0.00191349585155752
0.00203571552770823
0.00214639327361269
0.00215544475314761
0.00225882927763463
0.00229192566404665
0.00234870251643637
0.0023142286212218
0.00226682987043568
0.00229358153562814
0.00227331295622776
0.00218226693804966
0.00211059509148879
0.00215545655093486
0.00217587666408496
0.00208588931208957
0.00203504026605286
0.00201596124270996
0.00199406154938747
0.00200308495239546
0.00186872203876335
0.00187718879639099
0.00184180806734386
0.00181075746010464
0.0018141044367276
0.00182454648015088
0.00180009214437778
0.00185156949752492
0.00181436869319149
0.00179271264627705
0.00174602116564102
0.00171972179930802
0.00162251468064011
0.00157081244541682
0.00153220133028224
0.001496915297475
0.00153677124460024
0.00148980441037097
0.00148903086248528
0.00151186895512859
0.00155997613178176
0.00158206124386988
0.00154252016504862
0.00158087578899262
0.00164453861121271
0.0016352177675505
0.00160944238662052
0.00162742434793593
0.00163592979571942
0.00169240941680697
0.00178179433959291
0.00193272953056332
0.00215045567413268
0.00244114850888683
0.00274312109317855
0.00316399415954328
0.00368079480287697
0.00415743830225822
0.00440020197148521
0.00460291276037835
0.00459717912490037
0.00481008573270827
0.00501139997708019
0.00493403003650914
0.00502518863463274
0.00520457553903525
0.00514897485867022
0.00505551310832868
0.00560969984355758
0.00600049328197935
0.00667550286973122
0.00819028623911226
0.00957536331361465
0.0128161322683845
0.0143102591904015
0.0186722239930641
0.0230166780420852
0.0284269978410557
0.0286683932025201
0.0159644715126641
0.00384809039526232
0.00212482624861473
0.0256581080969833
0.0382978949836562
0.0565064501214675
0.0870555125216177
0.135645771912299
0.216670708758504
0.098178321636022
0.0188930055496538
0.00178483876467909
0.00014528485165687
0.000661196554857828
0.000990896530197945
0.00104141303990031
0.000977072558329335
0.000774252022385319
0.000599168718890821
0.000395113852940224
0.000267582389511659
0.000214023655334394
0.00010009160752845
8.13148171961317e-05
6.69008554173138e-05
7.53917301088218e-05
8.65014536252395e-05
0.00010680559566332
0.000132534066264528
0.0001484962169846
0.000119296714842964