5 	0.00391112967796274 	3.46944695195361e-18 	1.12910335596715 	0.000114394831241831 	441.229902878727
5 	0.0118766651674915 	6.93889390390723e-18 	1.12909640871616 	0.00104483580718735 	127.823739021457
5 	0.020134001548576 	0 	1.12907516135815 	0.00367061815568057 	32.6172161534748
5 	0.0286938283423949 	-6.93889390390723e-18 	1.12902686132221 	0.00660241894629644 	14.9862149823469
5 	0.0375672266585909 	1.73472347597681e-18 	1.12894883615194 	0.00902443192333926 	9.4234806669567
5 	0.0467656835403033 	1.04083408558608e-17 	1.12885004452753 	0.0110056927469375 	6.93213862745024
5 	0.0563011068347008 	1.04083408558608e-17 	1.12873787882801 	0.0127071871974315 	5.54152549030033
5 	0.0661858406082649 	3.46944695195361e-18 	1.12861577323742 	0.0142272346011889 	4.65744812523285
5 	0.0764326811267816 	5.20417042793042e-18 	1.12848572847377 	0.0156234572615737 	4.04752530555608
5 	0.0870548934207257 	1.21430643318376e-17 	1.12834939421906 	0.0169318647791279 	3.60301935668634
5 	0.0980662284574838 	1.21430643318376e-17 	1.12820819564968 	0.018176486475882 	3.26633923938592
5 	0.109480940942647 	1.04083408558608e-17 	1.12806338240624 	0.0193742670052084 	3.00413271898104
5 	0.121313807773416 	1.04083408558608e-17 	1.12791609173402 	0.0205377106008136 	2.79574500997734
5 	0.13358014716801 	1.04083408558608e-17 	1.12776738802893 	0.021676398713509 	2.62770262203842
5 	0.146295838495839 	8.67361737988404e-18 	1.12761828258113 	0.0227979073784677 	2.49084687050965
5 	0.159477342834115 	8.67361737988404e-18 	1.12746974382633 	0.0239083854455152 	2.37874178504921
5 	0.173141724277517 	1.21430643318376e-17 	1.12732270238249 	0.0250129308367967 	2.2867405708462
5 	0.18730667202848 	1.21430643318376e-17 	1.12717805258685 	0.026115840568421 	2.21141298312359
5 	0.201990523296728 	1.21430643318376e-17 	1.12703665167441 	0.027220778124154 	2.15018042350805
5 	0.217212287037675 	1.56125112837913e-17 	1.12689931743473 	0.0283308840905443 	2.10107563363895
5 	0.232991668560441 	2.25514051876985e-17 	1.12676682494754 	0.0294488457935875 	2.06257979931084
5 	0.249349095037321 	3.12250225675825e-17 	1.12663990284391 	0.03057693557771 	2.03350920995312
5 	0.266305741947753 	3.46944695195361e-17 	1.12651922947149 	0.031717023561801 	2.01293445216577
5 	0.283883560490998 	2.60208521396521e-17 	1.12640542941912 	0.032870568241022 	2.00012140735549
5 	0.30210530600303 	1.73472347597681e-17 	1.12629907068004 	0.0340385866502932 	1.99448709141665
5 	0.320994567414413 	2.25514051876985e-17 	1.12620066074341 	0.035221604694548 	1.9955656935793
5 	0.340575797787321 	2.42861286636753e-17 	1.12611064503903 	0.036419587692255 	2.00298164392663
5 	0.360874345971201 	2.60208521396521e-17 	1.12602940892844 	0.0376318492680644 	2.01642737843397
5 	0.38191648941809 	2.42861286636753e-17 	1.12595727408657 	0.0388569391732915 	2.03564426208362
5 	0.403729468200045 	1.73472347597681e-17 	1.12589449809543 	0.040092508021777 	2.06040534903476
5 	0.426341520272733 	2.08166817117217e-17 	1.12584127532997 	0.0413351481984479 	2.09049898692736
5 	0.449781918030829 	1.90819582357449e-17 	1.12579777842471 	0.0425802105903056 	2.12571241988975
4.99999999999999 	0.474081006202548 	1.56125112837913e-17 	1.12576420133878 	0.0438215980210947 	2.1658146489988
5 	0.499270241132363 	1.56125112837913e-17 	1.12574013465395 	0.0450515366933515 	2.21053780280375
5 	0.525382231502762 	1.56125112837913e-17 	1.12572317991297 	0.0462603238365217 	2.25955616104249
5 	0.552450780547767 	2.25514051876985e-17 	1.12571759375462 	0.0474362297532815 	2.31247167701382
5 	0.580510929812849 	3.20923843055709e-17 	1.12576694615994 	0.0485671936818774 	2.36888517687187
5 	0.60959900451791 	3.98986399474666e-17 	1.12589599172965 	0.0496448489513647 	2.42852143590535
5 	0.639752660582032 	3.90312782094782e-17 	1.12605272978231 	0.0506477915367105 	2.48973489930416
5 	0.671010933370886 	3.72965547335014e-17 	1.12618773771046 	0.051518082571622 	2.54834982926073
4.99999999999999 	0.7034142882299 	3.29597460435593e-17 	1.12629140569664 	0.052186167354163 	2.59918705712897
4.99999999999999 	0.737004672868605 	2.68882138776405e-17 	1.12637112118694 	0.0525906344611796 	2.63750082263372
4.99999999999999 	0.771825571663975 	3.12250225675825e-17 	1.1264356950722 	0.0526853188508342 	2.6596390900356
4.99999999999999 	0.807922061953053 	2.68882138776405e-17 	1.12648960982878 	0.0524382280061103 	2.66313107553703
4.99999999999999 	0.845340872387742 	1.21430643318376e-17 	1.1265320379162 	0.0518293781416659 	2.64659718553596
5 	0.884130443427308 	1.30104260698261e-18 	1.12655826894412 	0.0508515433511079 	2.60961216495723
5 	0.924340990046897 	3.90312782094782e-18 	1.12656181946913 	0.0495140676582107 	2.55254661752313
5 	0.966024566743241 	6.93889390390723e-18 	1.12653606216651 	0.0478475858185751 	2.47647403637187
5 	1.00923513492173 	6.50521303491303e-18 	1.12647502766281 	0.0459066798010591 	2.3831981596049
5 	1.05402863275205 	1.2793585635329e-17 	1.12637358769262 	0.043767906982817 	2.27533898596359
5 	1.10046304758287 	1.99493199737333e-17 	1.12622737685811 	0.0415220871785449 	2.15633541537626
5 	1.14859849100923 	2.71050543121376e-17 	1.12603279145754 	0.0392619181436355 	2.03023489139215
5 	1.19849727668994 	2.82976767018717e-17 	1.12578752140208 	0.0370693326793444 	1.90147193606902
5 	1.25022400101563 	2.35271871429354e-17 	1.12549099133049 	0.0350109173725652 	1.7755380320035
5 	1.30384562673185 	2.42861286636753e-17 	1.12514358436904 	0.033118200582699 	1.65528756786778
5 	1.35943156962565 	3.12250225675825e-17 	1.12474846857895 	0.0313863296933922 	1.54096059327094
5 	1.41705378838762 	3.12250225675825e-17 	1.12430979158139 	0.0297995674172482 	1.433262024961
5 	1.47678687776592 	2.08166817117217e-17 	1.12383114269542 	0.0283340858266023 	1.33285179925989
5 	1.53870816513277 	1.73472347597681e-17 	1.12331901712026 	0.0269583137666868 	1.23911583333078
5 	1.60289781058851 	2.08166817117217e-17 	1.12281222671173 	0.0256285606946189 	1.14885658489665
5 	1.66943891073266 	2.08166817117217e-17 	1.12230307937884 	0.0243166286118831 	1.06172477692154
5 	1.73841760623657 	2.42861286636753e-17 	1.12175816919945 	0.0230158172282545 	0.981810013272986
5 	1.80992319335659 	3.46944695195361e-17 	1.12118321852252 	0.0217173826984589 	0.91164024974138
5 	1.88404823953248 	4.5102810375397e-17 	1.12058114463828 	0.0204061796517236 	0.850779409688271
5 	1.96088870322037 	5.20417042793042e-17 	1.11996159143507 	0.0190935862975409 	0.798874535803829
5 	2.02024009608345 	5.55111512312578e-17 	1.11948494474965 	0.018074432100195 	0.76463483793299
5 	2.06000503604194 	0 	1.11915198783759 	0.017369284944594 	0.743473665576325
5 	2.09836474743796 	0 	1.11884335211735 	0.0167164391615295 	0.726010049639941
5 	2.13536888877258 	-3.46944695195361e-18 	1.11854667802749 	0.0160910837819703 	0.711230954162164
5 	2.17106536369585 	-6.93889390390723e-18 	1.11826224546127 	0.0154926023615299 	0.698972927471817
5 	2.20550038302044 	-6.93889390390723e-18 	1.11798971843321 	0.0149203948738525 	0.689112956015031
5 	2.23871852454378 	-6.93889390390723e-18 	1.11772872189666 	0.0143738356847686 	0.681560395728454
5 	2.27076279075613 	-6.93889390390723e-18 	1.11747889964386 	0.0138522581861222 	0.676251818213983
5 	2.3016746645094 	-6.93889390390723e-18 	1.11723990014703 	0.0133549551980845 	0.673147833572868
5 	2.33149416271872 	0 	1.1170113799617 	0.012881188377071 	0.672231291947143
5 	2.36025988816626 	6.93889390390723e-18 	1.11679300769813 	0.012430202160422 	0.673506470231428
5 	2.38800907947441 	0 	1.1165844656583 	0.0120012393877437 	0.676998992098375
5 	2.41477765931295 	-6.93889390390723e-18 	1.11638545022973 	0.0115935568749051 	0.682756328483531
5 	2.44060028090272 	-3.46944695195361e-18 	1.11619567148625 	0.0112064399789198 	0.690848793876668
5 	2.46551037287586 	-6.93889390390723e-18 	1.11601485221196 	0.0108392156832985 	0.701371000740455
5 	2.48954018255081 	-1.38777878078145e-17 	1.11584272653563 	0.0104912640349295 	0.714443767014413
5 	2.512720817678 	-6.93889390390723e-18 	1.11567903833021 	0.0101620279339434 	0.730216494672506
5 	2.53508228671037 	-6.93889390390723e-18 	1.11552353949761 	0.00985102135925947 	0.748870053792106
5 	2.55665353765073 	-1.38777878078145e-17 	1.11537598823163 	0.00955783613379951 	0.770620218468984
5 	2.57746249552636 	-6.93889390390723e-18 	1.11523614732843 	0.00928214731453733 	0.79572170917459
5 	2.59753609853934 	0 	1.11510378259557 	0.00902371724697371 	0.824472901083469
5 	2.61690033293929 	0 	1.11497866139466 	0.00878239826035885 	0.857221259213752
5 	2.63558026666389 	3.46944695195361e-18 	1.11486055134104 	0.00855813390561764 	0.894369558170759
5 	2.65360008179049 	6.93889390390723e-18 	1.11474921917466 	0.00835095855802266 	0.936382935753422
5 	2.67098310584102 	1.04083408558608e-17 	1.11464442981076 	0.00816099512686078 	0.983796814349199
5 	2.68775184198056 	1.38777878078145e-17 	1.11454594557602 	0.00798845054126777 	1.03722570057796
5 	2.70392799814879 	1.04083408558608e-17 	1.11445352563537 	0.00783360862318362 	1.09737284105331
5 	2.71953251516198 	1.38777878078145e-17 	1.11436692561671 	0.00769681992474219 	1.16504067023801
5 	2.73458559382185 	2.08166817117217e-17 	1.11428589744338 	0.00757848810925932 	1.24114193651982
5 	2.74910672106653 	2.42861286636753e-17 	1.11421018938769 	0.00747905250334759 	1.32671133860122
5 	2.76311469519732 	2.42861286636753e-17 	1.11413954636058 	0.00739896655208028 	1.42291745344821
5 	2.776627650214 	1.38777878078145e-17 	1.1140737104519 	0.00733867207558886 	1.53107470176932
5 	2.78966307929018 	6.93889390390723e-18 	1.11401242173152 	0.00729856945475741 	1.65265509636895
5 	2.80223785741904 	6.93889390390723e-18 	1.11395541931311 	0.00727898416009244 	1.78929958039111
5 	2.81436826325886 	6.93889390390723e-18 	1.11390244266965 	0.00728013036926971 	1.94282892461662
5 	2.82607000020647 	6.93889390390723e-18 	1.11385323317417 	0.00730207277780433 	2.11525446583198
5 	2.83735821672613 	1.04083408558608e-17 	1.11380753582313 	0.00734468807263437 	2.30878949416316
5 	2.8482475259599 	1.38777878078145e-17 	1.11376510109793 	0.0074076278872817 	2.52586290706839
5 	2.85875202464506 	1.38777878078145e-17 	1.11372568691953 	0.00749028536789236 	2.76913791132775
5 	2.86888531136304 	1.38777878078145e-17 	1.11368906043926 	0.0075917677396644 	3.0415401241658
5 	2.87866050414343 	1.73472347597681e-17 	1.11365499927391 	0.00771087749660252 	3.34630141851082
5 	2.88809025744591 	2.08166817117217e-17 	1.11362329536237 	0.00784610516455874 	3.68702826859474
5 	2.89718677854204 	2.42861286636753e-17 	1.11359376568312 	0.00799563728517849 	4.06780642304441
5 	2.90596184331818 	2.77555756156289e-17 	1.11356621714254 	0.00815738455126411 	4.4933813768199
5 	2.91442681151997 	3.12250225675825e-17 	1.11354021918735 	0.00832902137689398 	4.96977540811733
5 	2.922592641458 	3.81639164714898e-17 	1.11351541906727 	0.00850791937971265 	5.5068900912857
5 	2.93046990419394 	3.46944695195361e-17 	1.11349213603926 	0.00869077061663316 	6.11550428830287
5 	2.93806879722526 	2.77555756156289e-17 	1.11347069364502 	0.00887076965900842 	6.80218831377656
5 	2.94539915768638 	2.77555756156289e-17 	1.11345091880646 	0.00903945944105247 	7.57249541063833
5 	2.95247047508334 	2.77555756156289e-17 	1.11343253462106 	0.00918815942975227 	8.43442235185907
5 	2.9592919035784 	2.77555756156289e-17 	1.11341534257799 	0.00930856409541443 	9.40146343655895
5 	2.96587227384055 	2.77555756156289e-17 	1.11339922532768 	0.00939274100403255 	10.4957101754463
5 	2.97222010447726 	2.77555756156289e-17 	1.11338412321437 	0.00943272055613393 	11.7517404314395
5 	2.97834361306218 	2.77555756156289e-17 	1.11337002164255 	0.00941974883039502 	13.2224251215593
5 	2.98425072677325 	2.77555756156289e-17 	1.11335694697833 	0.00934311187790391 	14.9884689877203
5 	2.98994909265477 	2.77555756156289e-17 	1.11334496589601 	0.00918822824949109 	17.1750921193105
5 	2.99544608751689 	2.77555756156289e-17 	1.1133341847617 	0.00893337944418361 	19.9834822978127
5 	3.00074882748522 	2.42861286636753e-17 	1.11332474506678 	0.00854413175217683 	23.7465485057669
5 	3.00586417721304 	2.08166817117217e-17 	1.11331680531448 	0.00796370382599837 	29.047596085131
5 	3.01079875876789 	1.73472347597681e-17 	1.11331049386033 	0.00709747906173826 	36.9925492691613
5 	3.01555896020418 	2.08166817117217e-17 	1.11330585696307 	0.00579437311852272 	49.9451461182056
5 	3.02015094383281 	2.08166817117217e-17 	1.11330291766552 	0.00387960284813702 	74.2352881723065
5 	3.02458065419861 	1.38777878078145e-17 	1.11330135983072 	0.001637911590561 	136.104107345569
5 	3.02885382577582 	1.38777878078145e-17 	1.11330055397348 	0.000324764699869077 	432.12952018712
5 	3.03297599039165 	1.21430643318376e-17 	1.11330014508068 	2.49319202201877e-05 	1716.38566925554
