3 	0.00391112967796271 	-1.90819582357449e-17 	1.12369695599848 	0.00109545515583277 	447.318279423405
3 	0.0118766651674914 	-2.42861286636753e-17 	1.12366952179259 	0.00705924817180952 	138.580438970546
3 	0.0201340015485759 	-2.77555756156289e-17 	1.12358995031782 	0.0155670756435708 	44.0567194622299
3 	0.0286938283423949 	-3.12250225675825e-17 	1.12343690219042 	0.0224505530375111 	23.6623856706954
3 	0.0375672266585909 	-3.12250225675825e-17 	1.12322979952304 	0.0276964855424589 	16.1254640039259
3 	0.0467656835403032 	-2.42861286636753e-17 	1.12298967870748 	0.0319525332615436 	12.3077004111458
3 	0.0563011068347007 	-1.56125112837913e-17 	1.1227256856137 	0.0355934555673658 	10.0071341250335
3 	0.0661858406082649 	-1.73472347597681e-17 	1.12244225170053 	0.0388211174247985 	8.47031379165359
3 	0.0764326811267816 	-1.90819582357449e-17 	1.12214301656594 	0.0417537133134881 	7.37259497746583
3 	0.0870548934207257 	-1.73472347597681e-17 	1.12183122219947 	0.0444661928272368 	6.55124417927246
3 	0.0980662284574838 	-1.56125112837913e-17 	1.12150974528212 	0.047009164863131 	5.91563044680363
3 	0.109480940942647 	-8.67361737988404e-18 	1.12118124337209 	0.0494185114648538 	5.41122741597941
3 	0.121313807773417 	-3.46944695195361e-18 	1.12084826167322 	0.0517206660290675 	5.00323963066733
3 	0.133580147168011 	-5.20417042793042e-18 	1.12051328499288 	0.0539356998466159 	4.66840985006577
3 	0.146295838495839 	-6.93889390390723e-18 	1.12017876388307 	0.0560792210394735 	4.39060269952248
3 	0.159477342834115 	0 	1.1198471281977 	0.0581635907680224 	4.15827711725805
3 	0.173141724277517 	1.38777878078145e-17 	1.11952079233931 	0.0601987263910557 	3.96296681910369
3 	0.18730667202848 	3.12250225675825e-17 	1.11920215478389 	0.0621926430696963 	3.79832830419823
3 	0.201990523296728 	4.16333634234434e-17 	1.11889359391776 	0.064151822493874 	3.6595230679501
3 	0.217212287037676 	3.81639164714898e-17 	1.11859746172805 	0.0660814623516119 	3.54280425249242
3 	0.232991668560441 	3.81639164714898e-17 	1.11831607657814 	0.0679856397152654 	3.44523247737955
3 	0.249349095037321 	4.5102810375397e-17 	1.11805171611672 	0.069867409101314 	3.36447557893451
3 	0.266305741947753 	4.85722573273506e-17 	1.11780661125621 	0.0717288481222938 	3.29866411915064
3 	0.283883560490999 	4.16333634234434e-17 	1.11758294244129 	0.0735710585148753 	3.24628463965102
3 	0.30210530600303 	3.46944695195361e-17 	1.11738284020313 	0.0753941268547036 	3.20609877722626
3 	0.320994567414414 	2.77555756156289e-17 	1.11720838897281 	0.0771970474061707 	3.17708019897268
3 	0.340575797787321 	1.04083408558608e-17 	1.11706162861891 	0.0789776078509204 	3.15836373208675
3 	0.360874345971201 	0 	1.11694456379502 	0.0807322321089731 	3.14920234011788
3 	0.381916489418091 	3.46944695195361e-18 	1.11685918315921 	0.0824557836558465 	3.14892901037132
3 	0.403729468200046 	1.04083408558608e-17 	1.11680748135859 	0.0841413281888871 	3.15692108568755
3 	0.426341520272733 	2.08166817117217e-17 	1.11679147991218 	0.0857798539924664 	3.17256487761178
3 	0.441285719950775 	2.60208521396521e-17 	1.11679859931059 	0.0868088731204908 	3.18596559053934
3 	0.453216730115852 	2.94902990916057e-17 	1.11681894843959 	0.0875831134412737 	3.19892699815282
3 	0.474081006202548 	3.12250225675825e-17 	1.11687411234829 	0.0888690615519709 	3.22407505510256
3 	0.499270241132364 	4.16333634234434e-17 	1.11697711436346 	0.0902887498755126 	3.25845489161428
3 	0.525382231502763 	6.24500451351651e-17 	1.11712437433087 	0.0915986464279998 	3.29736342708739
3 	0.552450780547767 	5.89805981832114e-17 	1.11731816943223 	0.0927743362154114 	3.33960937388264
3 	0.58051092981285 	4.5102810375397e-17 	1.11756073130585 	0.0937873287898481 	3.38372479890881
3 	0.609599004517911 	3.81639164714898e-17 	1.11785413010087 	0.0946049832603583 	3.42790263273157
3 	0.639752660582033 	3.81639164714898e-17 	1.11820010284466 	0.0951907359326896 	3.46993890578686
3 	0.671010933370887 	4.16333634234434e-17 	1.11859981844859 	0.0955048036261875 	3.50719127819615
3 	0.703414288229901 	4.16333634234434e-17 	1.11905358894086 	0.0955056101411446 	3.53657722519622
3 	0.737004672868606 	4.5102810375397e-17 	1.11956059979344 	0.0951522793508566 	3.55466217529531
3 	0.771825571663976 	5.89805981832114e-17 	1.12011882969239 	0.0944085008360782 	3.55791039905721
3 	0.807922061953054 	6.24500451351651e-17 	1.12072530733198 	0.0932476180236846 	3.5431078108234
3 	0.845340872387743 	5.55111512312578e-17 	1.12137656006933 	0.0916580583133382 	3.50778755630057
3 	0.88413044342731 	5.55111512312578e-17 	1.12206880857318 	0.0896480507720362 	3.45040148875741
3 	0.924340990046898 	5.55111512312578e-17 	1.12279764854694 	0.087249280309412 	3.37018846667328
3 	0.966024566743242 	5.89805981832114e-17 	1.12355750633957 	0.0845196361198141 	3.26698332387901
3 	1.00923513492173 	6.24500451351651e-17 	1.12434138477097 	0.0815444983382867 	3.14124477845703
3 	1.05402863275206 	6.24500451351651e-17 	1.12514115095887 	0.0784345724982288 	2.9943746383068
3 	1.10046304758287 	6.59194920871187e-17 	1.12594826692642 	0.075317627864844 	2.82917298379588
3 	1.14859849100923 	6.93889390390723e-17 	1.12675468438458 	0.0723229182276982 	2.65014322657964
3 	1.19849727668995 	6.59194920871187e-17 	1.12755355116978 	0.069560677308141 	2.46337121860849
3 	1.25022400101563 	6.04984812246911e-17 	1.12833922238199 	0.0671047454833318 	2.27592454992807
3 	1.30384562673186 	5.70290342727375e-17 	1.12910619256699 	0.0649859929942483 	2.09520371003153
3 	1.35943156962566 	5.46437894932694e-17 	1.12985093672879 	0.0631683631345567 	1.92696001696897
3 	1.41705378838763 	5.63785129692462e-17 	1.1305691086196 	0.0615918935347597 	1.77517484709293
3 	1.47678687776592 	6.24500451351651e-17 	1.1312577422141 	0.0601798877854617 	1.64166051074994
3 	1.53870816513278 	6.24500451351651e-17 	1.13191602636657 	0.0588514916378725 	1.52577962205213
3 	1.60289781058851 	6.07153216591882e-17 	1.13254304594433 	0.0575332694598273 	1.42609839768364
3 	1.66943891073267 	5.89805981832114e-17 	1.13313635863405 	0.0561660043813944 	1.34161306578264
3 	1.73841760623657 	5.20417042793042e-17 	1.13369359335833 	0.05470232291242 	1.27076444451551
3 	1.8099231933566 	4.85722573273506e-17 	1.13421237135962 	0.0531046019493909 	1.21158230044547
3 	1.88404823953249 	4.68375338513738e-17 	1.13469195027148 	0.0513453333474989 	1.16253970208849
3 	1.96088870322038 	1.73472347597681e-17 	1.13509061076924 	0.0495260655070221 	1.1245122071962
3 	2 	2.08166817117217e-17 	1.13525426496688 	0.0486426991094142 	1.10880442923418
3 	2.02024009608346 	2.42861286636753e-17 	1.13538552634065 	0.0479821956447916 	1.09991056526418
3 	2.06000503604194 	2.77555756156289e-17 	1.1355920407692 	0.0467797823013057 	1.08531458927557
3 	2.09836474743796 	2.77555756156289e-17 	1.13573653908985 	0.0457024133494988 	1.07532184495119
3 	2.13536888877257 	2.77555756156289e-17 	1.13586541163225 	0.0446391408761974 	1.06805758405607
3 	2.17106536369585 	2.77555756156289e-17 	1.13597505984043 	0.0435921392953961 	1.06335592432473
3 	2.20550038302044 	2.77555756156289e-17 	1.13606644773815 	0.0425631720575308 	1.0610926470239
3 	2.23871852454378 	2.42861286636753e-17 	1.13614130056084 	0.0415536284335277 	1.06117741640663
3 	2.27076279075613 	2.08166817117217e-17 	1.13620107614392 	0.0405645604418938 	1.06354814842439
3 	2.30167466450941 	2.08166817117217e-17 	1.13624711100781 	0.0395967236203358 	1.06816707835275
3 	2.33149416271872 	1.73472347597681e-17 	1.13628067244241 	0.0386506184057573 	1.07501807844643
3 	2.36025988816627 	1.38777878078145e-17 	1.13630295507511 	0.0377265296435863 	1.08410490726087
3 	2.38800907947441 	1.38777878078145e-17 	1.13631508114566 	0.0368245630338868 	1.0954501801113
3 	2.41477765931296 	1.38777878078145e-17 	1.13631810310912 	0.0359446780037094 	1.10909492133881
3 	2.44060028090273 	1.38777878078145e-17 	1.13631300599569 	0.0350867168882206 	1.12509860858206
3 	2.46551037287587 	1.38777878078145e-17 	1.13630070964506 	0.0342504305460896 	1.14353965549327
3 	2.48954018255081 	1.38777878078145e-17 	1.13628207099182 	0.0334355006745536 	1.16451630682476
3 	2.51272081767801 	1.38777878078145e-17 	1.136257886427 	0.0326415591615738 	1.18814794173731
3 	2.53508228671038 	1.38777878078145e-17 	1.13622889423697 	0.0318682048418435 	1.21457679983159
3 	2.55665353765073 	1.38777878078145e-17 	1.13619577711577 	0.0311150180267928 	1.24397016144845
3 	2.57746249552636 	1.38777878078145e-17 	1.13615916473919 	0.0303815731670381 	1.27652303050567
3 	2.59753609853934 	1.38777878078145e-17 	1.13611963638403 	0.0296674499860418 	1.31246138559842
3 	2.6169003329393 	1.38777878078145e-17 	1.13607772357267 	0.0289722434005885 	1.35204608424059
3 	2.6355802666639 	1.38777878078145e-17 	1.13603391272175 	0.0282955725198078 	1.39557752688597
3 	2.6536000817905 	1.38777878078145e-17 	1.13598864777344 	0.0276370889913758 	1.44340121269997
3 	2.67098310584103 	1.73472347597681e-17 	1.13594233278789 	0.0269964849418035 	1.49591434899154
3 	2.68775184198056 	2.08166817117217e-17 	1.13589533447617 	0.0263735007371939 	1.55357371192429
3 	2.70392799814879 	2.08166817117217e-17 	1.13584798465393 	0.0257679327706786 	1.61690499891617
3 	2.71953251516198 	2.08166817117217e-17 	1.13580058259667 	0.0251796414613377 	1.68651396449401
3 	2.73458559382185 	2.08166817117217e-17 	1.13575339727803 	0.0246085596243007 	1.7630996929509
3 	2.74910672106653 	2.08166817117217e-17 	1.13570666947277 	0.0240547013393356 	1.84747043477453
3 	2.76311469519732 	2.08166817117217e-17 	1.13566061370593 	0.0235181714004989 	1.9405625213933
3 	2.776627650214 	2.08166817117217e-17 	1.13561542002867 	0.022999175365365 	2.04346297625721
3 	2.78966307929018 	2.08166817117217e-17 	1.13557125560026 	0.0224980301294742 	2.15743656145068
3 	2.80223785741904 	1.73472347597681e-17 	1.13552826605427 	0.0220151748173812 	2.28395813947229
3 	2.81436826325886 	1.38777878078145e-17 	1.13548657662527 	0.0215511815897928 	2.42475139068489
3 	2.82607000020648 	1.38777878078145e-17 	1.13544629301185 	0.0211067656966243 	2.58183510913938
3 	2.83735821672614 	1.38777878078145e-17 	1.13540750195247 	0.0206827937347416 	2.75757850432203
3 	2.84824752595991 	1.38777878078145e-17 	1.13537027149494 	0.0202802885713458 	2.9547671675659
3 	2.85875202464507 	1.38777878078145e-17 	1.13533465094934 	0.0199004287464368 	3.17668163005454
3 	2.86888531136304 	1.38777878078145e-17 	1.13530067053206 	0.0195445393576107 	3.42719077158016
3 	2.87866050414343 	1.38777878078145e-17 	1.13526834073646 	0.0192140704671065 	3.71086279692168
3 	2.88809025744591 	1.38777878078145e-17 	1.13523765150765 	0.0189105580042702 	4.03309720779924
3 	2.89718677854204 	1.38777878078145e-17 	1.1352085713551 	0.0186355610778598 	4.40028241134668
3 	2.90596184331819 	1.38777878078145e-17 	1.13518104660422 	0.0183905687539559 	4.81998577635398
3 	2.91442681151997 	1.38777878078145e-17 	1.13515500105835 	0.0181768689721608 	5.30118686967744
3 	2.92259264145801 	1.38777878078145e-17 	1.13513033639848 	0.0179953726875425 	5.85457160112852
3 	2.93046990419395 	1.38777878078145e-17 	1.13510693366425 	0.0178463878001473 	6.49291721127382
3 	2.93806879722526 	1.73472347597681e-17 	1.13508465610966 	0.017729339961143 	7.23161883395893
3 	2.94539915768638 	2.08166817117217e-17 	1.13506335358812 	0.0176424403297927 	8.08944313479365
3 	2.95247047508335 	2.08166817117217e-17 	1.13504286839146 	0.017582302207592 	9.08965214351596
3 	2.9592919035784 	2.08166817117217e-17 	1.13502304217219 	0.0175435061600429 	10.261736461324
3 	2.96587227384055 	2.08166817117217e-17 	1.13500372326881 	0.0175181017662885 	11.6441610856815
3 	2.97222010447726 	2.08166817117217e-17 	1.13498477351295 	0.017495005696645 	13.2888190693313
3 	2.97834361306218 	2.08166817117217e-17 	1.13496607344657 	0.0174591974559348 	15.2684364164435
3 	2.98425072677325 	2.08166817117217e-17 	1.13494752424326 	0.017390501292289 	17.6892641608375
3 	2.98994909265477 	2.08166817117217e-17 	1.13492904248312 	0.0172615221138531 	20.7137093182823
3 	2.99544608751689 	2.08166817117217e-17 	1.13491054424295 	0.0170338491930902 	24.6027716694898
3 	3.00074882748522 	2.08166817117217e-17 	1.13489193687479 	0.0166506004665693 	29.8018219653411
3 	3.00586417721304 	2.08166817117217e-17 	1.13487307776816 	0.0160209742149032 	37.1280077176471
3 	3.01079875876789 	2.42861286636753e-17 	1.13485309629157 	0.014986898623137 	48.2251241330434
3 	3.01555896020418 	2.77555756156289e-17 	1.13482853688217 	0.0132536322682743 	66.8462404358128
3 	3.02015094383282 	2.77555756156289e-17 	1.13479585563354 	0.0103323787018878 	103.441736719248
3 	3.02458065419862 	2.77555756156289e-17 	1.13476061419248 	0.00618521564450551 	201.370968197092
3 	3.02885382577583 	2.77555756156289e-17 	1.13473532549864 	0.00233736085132766 	694.766488325787
