/*--------------------------------*- C++ -*----------------------------------*\
  =========                 |
  \\      /  F ield         | OpenFOAM: The Open Source CFD Toolbox
   \\    /   O peration     | Website:  https://openfoam.org
    \\  /    A nd           | Version:  7
     \\/     M anipulation  |
\*---------------------------------------------------------------------------*/
FoamFile
{
    version     2.0;
    format      ascii;
    class       volScalarField;
    location    "1000";
    object      kDeficit;
}
// * * * * * * * * * * * * * * * * * * * * * * * * * * * * * * * * * * * * * //

dimensions      [0 2 -3 0 0 0 0];

internalField   nonuniform List<scalar> 
15600
(
0.00132230106896119
0.0014653943551487
0.000695917653212417
0.00020195997968859
2.02178714847596e-05
1.44862993266478e-05
1.78366659738493e-05
1.65564935175506e-05
1.5880784009338e-05
1.7067290087851e-05
1.99294052204062e-05
2.53191016948611e-05
3.40121099884686e-05
4.64457233571084e-05
6.31539161789684e-05
8.35910040061482e-05
0.000104804111722358
0.00012189337706657
0.000131676923273916
0.000131179205867429
0.000119536818999257
9.89337251552783e-05
7.39288547990919e-05
4.86108411752333e-05
2.85996771197903e-05
1.52829542736647e-05
8.29750949833223e-06
6.17124240128212e-06
1.13439548767987e-05
2.48222267733083e-05
3.4363886416748e-05
4.5463557656437e-05
7.73850002272583e-05
0.000141621308635397
0.00023748494630965
0.000361501838183396
0.000506118481765157
0.00065826456408821
0.000805813514743405
0.000941686462774971
0.00106313603743038
0.00117008438311457
0.00126359210535421
0.00134508238872111
0.00141593704636603
0.00147738628166398
0.00153043785736061
0.00157600352085623
0.0016149524777727
0.00164809017099337
0.00167622116228095
0.00170022419498711
0.00172109459179179
0.00173944873919335
0.00175457217152522
0.00176574986534809
0.0017731730245929
0.00177657323389575
0.00177735548142148
0.00177560349280472
0.00177146722221068
0.00176505889531454
0.00175642713942857
0.00174561698928265
0.00173260604667855
0.00171736800782625
0.00169985042789831
0.00167996093900916
0.00165759466007544
0.00163263709746674
0.00160497066680012
0.00157448053808609
0.00154106126005345
0.00150463910796027
0.0014651890025269
0.00142272916893386
0.00137730336452185
0.00132890574115996
0.0012774820742023
0.00122293916974641
0.00116524797600145
0.00110431620107444
0.001040218619329
0.00097281165263628
0.000902278828449474
0.000828485522406325
0.000751925381825779
0.000672418732194833
0.000591123980203314
0.00051120399794609
0.000433996191208972
0.000353887951696901
0.000320125307980736
0.000378347323655118
0.000434953721436413
0.000496760512322754
0.000557101204698531
0.000622890494711192
0.000703605004546037
0.000796636832041128
0.000880477774208468
0.000953090446062722
0.00101453019711294
0.00106320387778981
0.00108533725857816
0.00110671391017784
0.00114540853765333
0.00120699840552537
0.00130080348780947
0.00145501743713149
0.00170894931089692
0.00201453278606033
0.00238635373762591
0.00288478998832333
0.00346520077829547
0.00334379506333874
0.00208993983448294
0.0011388984292054
0.000624681041486918
0.000704855210699502
0.00725324885635708
0.00805769537073141
0.00384141977899448
0.00113613757973597
0.000123500718876177
7.95520574057168e-05
9.7473188312584e-05
9.10569343588889e-05
8.70962305908023e-05
9.31265222259099e-05
0.000108438276643044
0.000137490043752893
0.000184416665747934
0.000251379473409665
0.000340717085840057
0.000451765660533449
0.000568675543820474
0.000664200963606784
0.000720301502643537
0.000720142008148417
0.000658129831274198
0.000545418016960971
0.000406943217485622
0.000270610140468028
0.000161591688969861
8.65587862067658e-05
4.62553598055722e-05
3.38672208875164e-05
6.34945101407557e-05
0.000137841352556238
0.000189001174232921
0.00025014069639614
0.00043820020250775
0.00083714426615759
0.00145746258025463
0.00225096472769089
0.0031274763097371
0.00399103820357434
0.00478223853636559
0.00548024988217812
0.00608530055674414
0.00660583288407243
0.00705185494013514
0.00743259557047358
0.00775584603607978
0.00802806819623704
0.00825470602912856
0.00844068684735719
0.00859056043989318
0.0087085784117877
0.00879898928361285
0.00886636246816956
0.00891581073554356
0.00895244800857225
0.00897374826410473
0.00897493729048057
0.00895849847642795
0.00892822033145625
0.00888558045979786
0.00883166048509345
0.0087676492981668
0.00869452123644982
0.00861298762453003
0.00852366485191994
0.00842688712693049
0.00832291522497506
0.00821184656444186
0.00809357057509082
0.00796786241198925
0.00783439244117033
0.00769274493991328
0.00754243530821675
0.00738293397764887
0.0072137474404213
0.0070344795362993
0.00684480940496224
0.0066444121195685
0.00643268610711988
0.00620875758699776
0.00597153297867654
0.0057200796971444
0.00545315301243672
0.00517009537817272
0.00486932971934705
0.00455049305151488
0.00421190215855564
0.00385451724956821
0.00347643918940112
0.00308179677768046
0.00268739574937622
0.00231165788798544
0.00191593565423908
0.00172887986854795
0.00201260178179111
0.00230605084667102
0.00262875287046993
0.00294965143783054
0.0033059676058147
0.00374494877731345
0.00425174293143215
0.0047188548032965
0.00513626626777003
0.0055011150699867
0.00580085146606506
0.00596103412294069
0.00612352776721442
0.00638154615928944
0.00676624827803157
0.00733844751559681
0.00826647934156532
0.00976800040726292
0.0115749279613887
0.0138155188327801
0.016810164746271
0.0202306143376545
0.0201721452299806
0.0152991425188279
0.00877604245526239
0.00426148566973907
0.00403848381694684
0.0182964888956201
0.0186218099767648
0.00935425433962769
0.00281585803208655
0.000335278761415329
0.00019074363945489
0.000232522738640441
0.000219000152983531
0.000209890093721429
0.000223909729177131
0.000259722747491563
0.000327620370002214
0.000436810356085923
0.000590757647517575
0.000791784143561972
0.00102964140370897
0.00126418790789778
0.00143911573028294
0.00152438947767028
0.00150034469553922
0.00136725409631498
0.00114917263397452
0.000885376369186653
0.000609986687252978
0.000375028353939709
0.000206009538576554
0.000111180986001068
8.15192446814535e-05
0.000148826634291864
0.000308453339373361
0.000425252500106632
0.00059509190940285
0.00108104832919276
0.00206307714539759
0.00338346798560233
0.00469857205288245
0.00582802313152624
0.00676064683938836
0.00752909148714471
0.00816397364063998
0.00868921442529403
0.00912360482031038
0.00948194467169293
0.00977597161007994
0.0100150859007315
0.0102069938904226
0.0103581131559477
0.010474048009405
0.0105598606782619
0.0106202500329528
0.0106599775467695
0.0106840473468844
0.0106929624331114
0.0106802378218454
0.0106473164984732
0.0106034879194139
0.0105509571484339
0.0104920907471293
0.0104271594947802
0.0103572634285403
0.0102832299473186
0.0102056554453842
0.01012492245247
0.0100412270894772
0.00995456037902779
0.00986478139305192
0.00977158917189895
0.00967451188097387
0.00957295237799681
0.00946621949806786
0.00935355107199334
0.00923413330969874
0.00910713278277433
0.008971738421411
0.00882720082799461
0.00867279729757901
0.00850772358195599
0.00833094635888038
0.00814121047863013
0.0079371088529678
0.00771719595851349
0.00747983484541407
0.00722342702750396
0.00694589696802105
0.00664504164239199
0.00631830318586945
0.00596266231795753
0.00557429893276226
0.00514785744295781
0.00467957887535413
0.00417738723932765
0.00361471403956991
0.0033126661411568
0.00355506417398339
0.00389975732830078
0.00432187288720608
0.00479492939034476
0.00534957759581488
0.00602659069964837
0.00681533890569828
0.00763436439354742
0.00845179772560877
0.0092564807216877
0.0100278990423309
0.0107082448210754
0.011399614680485
0.0122144941082427
0.0132223328169221
0.014511901987551
0.0162819066448622
0.0187405275193745
0.0215935061823926
0.0248001288094506
0.0283206307688909
0.0317778773468474
0.0330584831554288
0.0321103655553411
0.0287493840532918
0.017086664933386
0.0128211863657255
0.0373796530639968
0.0307297844014333
0.0165102284914762
0.0051259152341844
0.000663465507391537
0.000318621936079135
0.000384979448532571
0.000367947549694613
0.000356107083626329
0.000380293601274838
0.000438987041518381
0.000546564461930472
0.00071136270673715
0.000927427816546251
0.00118178606526203
0.00143793550968024
0.0016467741468216
0.00176545257317613
0.00178513318133572
0.00170791358261038
0.00154563831718268
0.00132233540448501
0.00106772084567861
0.000796875723405188
0.000534063416548807
0.000321242931030325
0.000184613840565686
0.000136387589302744
0.00022810216765896
0.000433251638306975
0.000634104340742359
0.0010026473533655
0.0018428911566404
0.0030542320853507
0.00419397362691508
0.00506949346141873
0.00576163647999224
0.00634404546590563
0.00684152251137139
0.00726482268423537
0.00762287558730274
0.00792418706366466
0.00817644617190354
0.00838632053916833
0.00855949096590209
0.00870081093699968
0.00881446880004871
0.0089041960437239
0.00897338219229306
0.00902512824265827
0.00906192864318387
0.00908271353477432
0.00908808333444258
0.00907927411872867
0.0090590336364633
0.00903179261859704
0.00899872318929712
0.00896095809527448
0.00891880950247867
0.00887295777780679
0.008823846780415
0.00877176072499826
0.00871684277957145
0.00865909503762011
0.00859839786705145
0.00853453211144971
0.00846718339437498
0.00839594062865846
0.00832031581269477
0.00823977697252891
0.00815377120608119
0.00806174269186104
0.00796315621609756
0.00785751251676201
0.0077443635980486
0.00762327975904451
0.00749376879145844
0.00735522448511795
0.00720695053876207
0.00704822982185124
0.00687832153560132
0.006696504359841
0.00650201043838751
0.006294226214181
0.00607210038566123
0.00583531517406417
0.00558204385784073
0.00531155191513184
0.00501916881668114
0.00469607884825076
0.00433599520802456
0.00392487353259451
0.00367489461494173
0.00370068104760669
0.00387373119841708
0.0041497845071757
0.00450023432241494
0.00493055209833542
0.00545252811545121
0.0060558580226503
0.00671033515376924
0.00739460092779814
0.00810135387946113
0.00882045785684676
0.00955332158480255
0.0103448109032512
0.0112538834185954
0.0123296108876353
0.0136193455916949
0.0151823540088195
0.0169893449370519
0.0188619195287486
0.0206555686301616
0.0221411574207225
0.0231910840400115
0.0240164199502115
0.0252767506182877
0.0326318218633307
0.0319821104632938
0.0345243126826387
0.0580008900563921
0.0438895431983626
0.024185658308106
0.00820488570883968
0.00111593285020156
0.00043206909503628
0.00051038101729018
0.000500336911992156
0.00049307716366841
0.0005267823670192
0.000599505953266406
0.000721824326548247
0.00089043282693323
0.00108538389852205
0.00128518429074515
0.00145599595155548
0.00157520413937943
0.00162564162272221
0.00160731666714365
0.00152457820147993
0.00138538543731885
0.001205487842573
0.001005214110909
0.000794426753216704
0.000577244612466731
0.000382890374623211
0.00024014286666624
0.000183133255185608
0.000280287009752143
0.000508116403105217
0.000813746634602678
0.00141418441994885
0.00245468697649814
0.00355835412511773
0.00434885672672825
0.00489716505711207
0.00535843821418857
0.00577298341830258
0.00614075403110941
0.00646107545484285
0.00673652838282794
0.00697133463170478
0.00717006547021065
0.00733704144241913
0.00747613611362021
0.00759076613369201
0.00768395480588067
0.00775840756849723
0.00781651584592234
0.00786016143805315
0.00788958999008332
0.00790577075193026
0.00791009417292746
0.00790405199372207
0.00788988654993818
0.00786995555538053
0.00784505914191867
0.00781592222545916
0.00778290212312418
0.00774647404478749
0.0077069315805252
0.00766444491679327
0.00761907542257715
0.00757077481631174
0.00751940731430147
0.0074647588256215
0.00740655318809055
0.00734445235501963
0.00727806702727256
0.00720698722553798
0.00713080488674582
0.00704913018037418
0.00696160727151074
0.0068679187731668
0.00676778958586467
0.00666096021925742
0.0065471307476335
0.00642594691721931
0.00629702440079377
0.00616000772513887
0.0060145292049854
0.00586034759582596
0.0056972579009491
0.00552546236631368
0.00534477754149248
0.00515584280083298
0.00495801331585527
0.00475211117208777
0.00453580894759087
0.00430474746542526
0.0040517571251725
0.00376820551450365
0.00357230216137453
0.00351037447641067
0.00357427472830539
0.00373678243991262
0.00397216611853756
0.00427409471275367
0.00464081293575397
0.00506098901232668
0.00552066301318519
0.00600681987534085
0.00651412314089943
0.00703673545003503
0.00758899379298259
0.00819623368246114
0.00888813973502835
0.00969133533886201
0.0106267252431716
0.0116953223529411
0.0128073914406604
0.0138629255026443
0.0147775487304369
0.015427420519067
0.0158139570542474
0.0164185035606741
0.0172001578073704
0.0250279118928633
0.0378695461506389
0.0565748337474359
0.0676283343415354
0.0566242541371666
0.032876164274467
0.0121267855051184
0.00170777522340419
0.000506190411233173
0.000566411931406568
0.0005746719847155
0.000579193072826966
0.00061677942340781
0.000685974981644703
0.000791546669681821
0.000924786124974882
0.0010676786352995
0.00120493748801051
0.00131554908359442
0.00138962794902784
0.00141730730120592
0.00139682937291754
0.00132937838201729
0.00121895032373799
0.00107605831525857
0.000916092518418923
0.000748308499744743
0.000573445003866697
0.00040808271620698
0.000275287276142747
0.000219546974976211
0.000323792252304507
0.000590237187629733
0.00102295507135624
0.00181589353177957
0.0028891056201791
0.00376411129798079
0.00429041222793456
0.00467351507667478
0.00502900437787814
0.00536134617762534
0.00566122984759071
0.00592517052894695
0.0061538959715377
0.00635005171871319
0.00651688339162133
0.00665762094727223
0.00677524321228712
0.00687242033235848
0.00695153312792504
0.00701468388728347
0.00706362203364778
0.00709939607656671
0.00712272851555761
0.00713494557718793
0.00713733493965206
0.00713131898786288
0.00711861466032737
0.00710068927234876
0.00707818520112646
0.00705166438512239
0.00702148354833549
0.00698801074426474
0.00695146990025486
0.00691198196223769
0.0068695768701267
0.00682419521488823
0.00677570765224072
0.00672392060913834
0.00666859758526529
0.00660945950944417
0.00654619097825675
0.00647846823811603
0.00640598114579481
0.00632844762511641
0.00624562370203357
0.00615730241940049
0.00606331189093621
0.00596349467902005
0.00585766904671264
0.00574563119605214
0.00562717444287439
0.00550213672606953
0.00537036960883323
0.00523195433914402
0.00508708766975409
0.00493635164668652
0.00478003288532947
0.00461916590422562
0.00445387387880854
0.00428568033822828
0.00411395063324025
0.00393778002372958
0.00375212019991258
0.00355269107267797
0.00340363621553939
0.00331936220455678
0.00332731714323207
0.00341944023193732
0.00357762049674656
0.00379209717065689
0.00405569143753078
0.00435717210396192
0.00468813075707281
0.00504005284565458
0.00540849745576678
0.00578916584875622
0.00619624080499461
0.00664711301969278
0.00715837711218623
0.00774416630236382
0.00841384348300047
0.00915453861783658
0.00988554553327143
0.0105502617130737
0.0111134389762157
0.0115222140698452
0.011801499294042
0.0122831455018851
0.0129036082617606
0.0168388944401221
0.0320663103682376
0.0565043066494683
0.0626373759636121
0.0630924286321989
0.0420861796477002
0.0171413649002291
0.00255589574236957
0.000552976314899827
0.000553922233218712
0.000582591958604906
0.000600563289243723
0.000638095181989675
0.000697311535161716
0.000781413078823302
0.000883261383725667
0.000990201875913047
0.0010913661295435
0.00117307810648103
0.00122923670407394
0.00125217122218502
0.00123838538551646
0.00118680847565771
0.00109901913687088
0.000982365014575293
0.000849312447386046
0.000709010520186078
0.000563049205088905
0.000421467427170621
0.000301946950407311
0.000254148201196182
0.000376257324165134
0.000704562733561227
0.001275765706208
0.00218795291143574
0.00316992625771835
0.00381430480602106
0.00418001063775223
0.00448481372260133
0.00478664419981413
0.00507267947423299
0.00533223192558483
0.00556159352463375
0.00576095503470231
0.00593229266403395
0.00607820600733028
0.00620135489463628
0.00630422571136965
0.00638905863689973
0.00645784255084706
0.00651229483494372
0.00655378178575293
0.0065831505035147
0.00660149429326899
0.00661002861938928
0.00660995117426272
0.00660254429621448
0.00658915375958726
0.00657082383037294
0.00654811933115777
0.00652152503213301
0.00649138603860737
0.00645801241022283
0.00642159438948067
0.00638223202656764
0.00633994549117916
0.00629467917400867
0.00624631782525916
0.00619469140872802
0.00613959899637357
0.00608080883419043
0.00601806185453589
0.00595109748337382
0.00587967498051054
0.00580358610978553
0.00572266098542247
0.00563676374784403
0.00554578773161611
0.00544964009681632
0.0053482150212152
0.00524140305331564
0.00512910430681582
0.00501127208855616
0.00488794149797402
0.00475943881213152
0.00462619516130161
0.0044889605690748
0.00434829315579523
0.00420539200497453
0.00406086939281399
0.00391657518172454
0.00377298520811712
0.00363128279304967
0.00348864172548923
0.00334461307355895
0.00323356756499986
0.00315233351711842
0.00313420921836183
0.00318367582618974
0.00329078511005477
0.00344632396089745
0.00364139143780359
0.00386572324931731
0.00411338702149962
0.00437829955571202
0.00465652734420652
0.00494459277027166
0.00525442010795136
0.00559922271824615
0.00598954721472894
0.0064334290300015
0.00693557652240676
0.00748226846228356
0.00801277252019904
0.00849548723447948
0.00891893782375122
0.00926079990317084
0.00954244823113873
0.00994977006362317
0.0105901838608783
0.0120915382495858
0.0235032197203601
0.0440503560495513
0.0496285374165242
0.0612136185379096
0.0497119432150427
0.0232855067752519
0.00389194080965115
0.000620857153707687
0.000511455028765278
0.000553085210362064
0.000582242480857825
0.000619612654843477
0.000671632010639709
0.000741425853955383
0.000823875113163769
0.000909927127035504
0.0009913546119645
0.00105881587672467
0.00110765634749347
0.00113127962660064
0.00112521215523123
0.00108693949000843
0.00101641541075113
0.000918818026452539
0.000804617089966921
0.00068284253081392
0.000556603601140558
0.000433281356240396
0.000327334952888015
0.000292695709018534
0.000445864506299648
0.000858100445669511
0.00155956261571622
0.00250628908919022
0.00333094916047434
0.00379126073078319
0.00407010191504109
0.00433744597142446
0.00460893054173637
0.00486649362793472
0.00510036593737477
0.00530718104548255
0.00548699712098557
0.00564148657711915
0.00577291689628428
0.00588363596994301
0.00597584643269019
0.00605152821830339
0.0061124218895606
0.00616000218085983
0.00619541008081986
0.00621958635486355
0.00623365321859229
0.00623874142692751
0.00623596683084513
0.00622647615680536
0.00621136990923814
0.00619147525864077
0.00616731678215687
0.00613934035027448
0.00610788165518062
0.00607322069898176
0.00603553353197525
0.00599491448972608
0.0059513852183929
0.00590490085554538
0.00585536315969907
0.00580262530710284
0.00574651740507486
0.00568684604496224
0.00562339578733581
0.00555595329102055
0.00548432815014465
0.00540836392790114
0.0053279408595397
0.00524296947202525
0.00515338452907637
0.00505913413125558
0.00496016124552384
0.00485641570214432
0.00474786376660702
0.00463455072353415
0.00451668268592655
0.00439474231305381
0.0042692817001715
0.00414112128110892
0.00401097793973156
0.00388010980345491
0.00374943575331017
0.00362094604597352
0.00349582495091238
0.00337639225961179
0.00326170799927348
0.00315425773057085
0.0030722664920135
0.00300276379579283
0.00297491155550944
0.00299931912649483
0.00307258745960692
0.00318766465592503
0.00333572059992029
0.0035079686496969
0.00369989337147844
0.00390671545528315
0.00412480485122872
0.0043512790282077
0.00459583639043488
0.00486903584432631
0.00517843341538178
0.00552919278947456
0.00592432858665617
0.0063528599231372
0.00677248294022163
0.00716660797731859
0.00753313345572871
0.00786156139910858
0.00816413957565695
0.00852996038525218
0.00914716648418707
0.0097318928870255
0.0166685619944127
0.0311712809339335
0.0356710451329721
0.0519758415955291
0.0535465210807106
0.0301681534997891
0.00597860449323191
0.000769109766702627
0.00047181025245625
0.000513505486823644
0.000550828471316103
0.000588345956631899
0.000635987699523816
0.000697000040933763
0.000767543726315791
0.000840915781717459
0.000910810677269317
0.000970648553050999
0.00101652696503312
0.00104252484833505
0.00104364131007804
0.00101638625234469
0.000959507857712905
0.000876547647521185
0.000776444151546704
0.000668082357286099
0.000556021557980804
0.000447123598276054
0.000354785212399119
0.000338450108953397
0.00053752696371963
0.00105034994283735
0.00185245339259248
0.00275560343597142
0.00340571721937336
0.00373832898534469
0.00397513991708013
0.00422441482182653
0.00447783111168957
0.00471734748367243
0.00493444825627975
0.00512618356958066
0.00529263545101052
0.0054353561805471
0.00555645343164124
0.00565811104989817
0.0057423711074637
0.00581105644231652
0.00586575115070057
0.00590778706550408
0.00593819609865573
0.00595800957905934
0.00596830857034824
0.00597015988814496
0.00596460833119476
0.00595268967423508
0.00593534598368687
0.00591328864180036
0.00588702288492054
0.00585697663612943
0.00582348216615853
0.00578680693056517
0.00574712484427447
0.00570453378901187
0.00565906350415773
0.00561068352372825
0.00555931365337877
0.00550482891599217
0.00544708633106879
0.00538592377864287
0.0053211597987767
0.0052526165284347
0.00518014020121342
0.00510361071401748
0.00502294187343057
0.00493807365395726
0.0048489659552308
0.0047555914963764
0.00465792317384679
0.00455594613478214
0.00444967205776999
0.00433924446750668
0.0042250042590461
0.00410751195046886
0.00398737962900487
0.00386544908460761
0.00374252594313255
0.00361987382514093
0.0034985958300309
0.00338072009026246
0.00326786697987469
0.0031629396878177
0.0030663780299589
0.00298276356241232
0.00292176452217269
0.00286549459033628
0.0028364853024439
0.00284710896523828
0.00289827494100241
0.00298539952163604
0.00310055843787615
0.0032367034545421
0.00339025926365783
0.00355710858221242
0.0037338406715381
0.00391808179300685
0.0041176427520737
0.00434119027230788
0.0045947241796055
0.00488217145216181
0.00520621646785597
0.00555968590467079
0.00591549989891877
0.00626577174348865
0.00661041534033189
0.00694339706127853
0.00726696768714187
0.00760959827641473
0.00816150067960843
0.00849653784725912
0.0123344329459247
0.0218629747408021
0.0247078989709627
0.0395130706789723
0.0521073326883719
0.0368026981665329
0.00905780041016901
0.00107936735493908
0.000452242724477747
0.000476357724840785
0.000519071878225376
0.000556705597007317
0.00060126675973126
0.000656404546702891
0.000719071205184044
0.000784178929149172
0.000846885132780201
0.00090242141398202
0.000947359356126295
0.000976252936995305
0.00098382783345935
0.000965910056966361
0.000920300954713721
0.000849232111545788
0.000760363332801773
0.000662427131862728
0.000561269040735614
0.000464465928481081
0.000386273858360793
0.000394192545448889
0.000655239090523629
0.00127534069638783
0.00213054403616442
0.00293227423655561
0.00342325797964555
0.00367739704270791
0.00389745309644896
0.00413856857519914
0.0043814174937953
0.00460968198069319
0.00481593669241766
0.00499762181118115
0.00515491669434521
0.00528935879526697
0.00540300096863358
0.00549795616590904
0.00557618564734379
0.00563942397954811
0.00568916090179474
0.0057266447632074
0.00575288906039496
0.00576894800327158
0.00577586896243002
0.0057746702584477
0.00576633843755298
0.00575182570253492
0.00573197426553518
0.00570743442417538
0.00567870559187971
0.00564621112404278
0.0056102864109779
0.00557119817434536
0.00552912633951089
0.0054841784941804
0.00543639668501721
0.00538576689122917
0.00533222713733504
0.00527567261852159
0.00521598367146689
0.00515302377962422
0.00508663786641315
0.00501667451233901
0.0049430063134529
0.00486553813721436
0.00478420535247179
0.00469896516697314
0.00460979089364801
0.00451666807722513
0.00441958576171184
0.00431854841124959
0.00421361143084214
0.00410501434001893
0.00399318525267451
0.00387871338193292
0.00376223606151321
0.00364458986022792
0.00352662370260088
0.00340957764895751
0.00329465577021544
0.00318386387766304
0.0030790731943892
0.00298344038399303
0.00289835386645815
0.00282974032430481
0.00278295717351527
0.00273836747631778
0.00271218622144104
0.00271611386581969
0.00275331985234434
0.00282131460959673
0.0029133787781473
0.00302425802925914
0.00315098875286472
0.0032897559410838
0.00343739364697988
0.00359199081780594
0.00375976557761212
0.00394797264005347
0.00416179035785232
0.00440479711649308
0.00468006036047939
0.00498464415082607
0.00530364316920465
0.00563335511462086
0.00597186050030654
0.0063044704437133
0.00663805943244211
0.00698421009817574
0.00745892253910144
0.00774207910408282
0.0098441680878049
0.0157476083953622
0.0174192928773777
0.0280597289777264
0.0459630869430854
0.0418084377606738
0.0132583581803728
0.00165783270994518
0.000465052393962514
0.000446036258225976
0.000491034304281164
0.000528707763521949
0.000570681756607387
0.000621433173078607
0.000678492385814216
0.000737905897565085
0.000795934028021163
0.000849015644567715
0.000894051057799139
0.000925954839267714
0.000939335202321972
0.000929538910497651
0.000893609158080882
0.000832695408568208
0.000753327376378209
0.000664089578741522
0.000571992786428808
0.000486143636672557
0.000423464541546843
0.000463050070434379
0.00080175257259159
0.0015211525924616
0.00237321053603925
0.00304225450997862
0.0034064384292469
0.0036190785860365
0.00383598083338683
0.00407454618375828
0.00431188976886186
0.00453364739638646
0.00473325164526273
0.00490848720046219
0.00505966629211701
0.00518837511603244
0.00529667942026
0.00538668363787828
0.00546032320669919
0.00551929333830413
0.00556503506216203
0.00559875633998041
0.00562147909354138
0.00563426002247322
0.00563812192717427
0.00563404717860112
0.00562297734726696
0.00560580577536011
0.00558331473102993
0.00555612537555588
0.00552474096441557
0.00548958975663749
0.00545101630704941
0.00540929500479259
0.00536461762309895
0.00531710577929873
0.00526681664755964
0.00521375382406932
0.005157873286654
0.00509908868357944
0.00503730057887992
0.00497239341018276
0.00490423237056914
0.0048326853754958
0.00475764349534893
0.00467902802970216
0.00459678698057842
0.00451088576556909
0.00442130249764438
0.0043280268806677
0.00423105380532445
0.00413039802261551
0.00402616624972383
0.00391867738954108
0.00380840260164133
0.00369593355238172
0.00358191174049735
0.00346715362985873
0.00335252148079598
0.00323921557155991
0.00312848423021209
0.00302227481798425
0.00292258329525544
0.00283262072686368
0.00275440045152728
0.00269457622897583
0.00265655958985804
0.0026209847969056
0.00259895060354517
0.00260041065144659
0.00262927308252673
0.00268449270531619
0.00276057184979474
0.00285390091299872
0.00296180233497098
0.00308060732755154
0.00320751887171974
0.00334102277438095
0.0034859549709908
0.00364853893103993
0.00383353040456343
0.0040446985849936
0.00428593494506219
0.00455882867067404
0.00485786430077121
0.0051714293719707
0.00549490067039435
0.00581776827849045
0.00615330366601314
0.00652408668285586
0.00694216224617202
0.00721433745525002
0.00842176989125359
0.0119506263065348
0.0129040036357702
0.019513879698519
0.0373341841519736
0.0440284568344263
0.018482545497529
0.00258849329429627
0.000527378229109842
0.000424851594685006
0.000467477437178196
0.000505137269477741
0.000544737173239881
0.00059191585964387
0.000644750112487493
0.000700085211164578
0.000754996854439669
0.000806734395514129
0.000852434559378316
0.000887302039199122
0.000905931932637107
0.00090335023138318
0.000876000784463219
0.000824124520850213
0.000753245822127096
0.000671793112637322
0.000587899176811077
0.000512851058639109
0.000468112463101962
0.000548705337472337
0.000976983220126051
0.00177119719350123
0.00256653757598086
0.0030973942746727
0.00337196140094735
0.00356819529088849
0.00378901297957238
0.00402854304077179
0.00426400876940396
0.00448273149929024
0.00467879805685534
0.00485028814850139
0.0049976601744467
0.00512258700583076
0.00522719195463571
0.00531361423347419
0.00538380293028177
0.00543945001432924
0.00548198230225625
0.00551259144766466
0.00553231955027017
0.00554222162524451
0.00554330455313933
0.00553652552170657
0.00552279381469336
0.00550296465323279
0.00547778802497516
0.00544787588140509
0.00541374267902709
0.00537582872038326
0.00533449297627079
0.00529002370066479
0.00524262885307009
0.00519244721833696
0.00513955303221243
0.00508396816024085
0.00502566603818359
0.00496457711617538
0.00490061956184643
0.00483369495356199
0.00476368378808251
0.00469046767680086
0.00461395008272833
0.00453406230391079
0.00445075831249963
0.00436400504967805
0.00427377912077193
0.0041800680051452
0.00408286489926824
0.00398219399004875
0.0038782171130402
0.00377130717318834
0.00366194814527263
0.00355071969599136
0.00343825433424321
0.0033253401253697
0.00321283295620727
0.00310188439752877
0.00299374872574468
0.00289029353502678
0.00279355425717523
0.00270667723380381
0.00263206885318408
0.00257663525441959
0.00254313969876455
0.00251373084504529
0.00249569651469449
0.00249697713719407
0.00252126843596669
0.00256829943195342
0.00263371323567963
0.00271516476704434
0.00280990521125646
0.00291443319085819
0.00302654152969748
0.00314497879803473
0.0032733482392076
0.00341719790421346
0.00358106292425986
0.00376929567002786
0.00398695641687391
0.00424030401231081
0.00451881481440673
0.00481206734868782
0.00511612751285753
0.0054295805904168
0.00576590463831024
0.00615636252546621
0.00655327200680732
0.00681622525635651
0.00755535564158459
0.00968565434623398
0.0102339077020644
0.0138837994237825
0.0286268026786654
0.0430776352157421
0.0240221834893021
0.00406439307370921
0.000670166114116154
0.000415945428394774
0.000448355486662291
0.000485767643917062
0.000523139021401785
0.000567222020492309
0.000616724481922284
0.000669053957918269
0.000721872095776898
0.000772968648251368
0.000819649063109437
0.000857360382757701
0.000880758273997613
0.000884679236607376
0.000865115121499485
0.000821548642248624
0.000758634026339232
0.000684626809603311
0.000608823957795667