/*--------------------------------*- C++ -*----------------------------------*\
  =========                 |
  \\      /  F ield         | OpenFOAM: The Open Source CFD Toolbox
   \\    /   O peration     | Website:  https://openfoam.org
    \\  /    A nd           | Version:  7
     \\/     M anipulation  |
\*---------------------------------------------------------------------------*/
FoamFile
{
    version     2.0;
    format      ascii;
    class       volScalarField;
    location    "1000";
    object      nut;
}
// * * * * * * * * * * * * * * * * * * * * * * * * * * * * * * * * * * * * * //

dimensions      [0 2 -1 0 0 0 0];

internalField   nonuniform List<scalar> 
15600
(
7.91334853161351e-09
8.77270795874837e-09
4.11556822833122e-09
1.11357264416045e-09
9.57879101634374e-11
6.03330728136269e-11
7.30793730692978e-11
7.28118554056127e-11
7.97846572989946e-11
1.02778850155018e-10
1.49228621007687e-10
2.34750688293026e-10
3.83461563354725e-10
6.26419979704415e-10
1.00397300852529e-09
1.54530159232359e-09
2.23862926661207e-09
3.03903232577626e-09
3.87611366633101e-09
4.60461135218761e-09
5.04331677279021e-09
5.03466037485631e-09
4.48268065902991e-09
3.43250602570008e-09
2.28705172523221e-09
1.3392271904958e-09
7.69251479969918e-10
5.86229068168253e-10
1.09294914630863e-09
2.36790330157224e-09
3.25447586863322e-09
4.32881748080374e-09
7.40128515854547e-09
1.35487873239293e-08
2.27036747904136e-08
3.45375607647743e-08
4.83215529249117e-08
6.28076520931552e-08
7.68466905906969e-08
8.97705343011243e-08
1.01321287030955e-07
1.11492876044297e-07
1.20386698442721e-07
1.28138088995206e-07
1.34878286322877e-07
1.40724163758035e-07
1.45771390489385e-07
1.50106477148425e-07
1.53811921120411e-07
1.5696411290065e-07
1.59639361185258e-07
1.61920869280844e-07
1.63903155684829e-07
1.65645817022105e-07
1.67082964108908e-07
1.68145331360047e-07
1.68851253131145e-07
1.69173455027695e-07
1.69246791754757e-07
1.69079114760255e-07
1.68684725540011e-07
1.68074394463055e-07
1.67252771088872e-07
1.66224244779344e-07
1.64986704601092e-07
1.63537778325482e-07
1.61872513378626e-07
1.59982129577098e-07
1.57856765966029e-07
1.55485627943201e-07
1.52857585402028e-07
1.49961789744244e-07
1.46788120852418e-07
1.43329483361857e-07
1.39583188108278e-07
1.35550545728229e-07
1.31235509481179e-07
1.26637579842456e-07
1.21751655030824e-07
1.16568821680558e-07
1.11086308101156e-07
1.05294689738301e-07
9.9200829406879e-08
9.279122639901e-08
8.60822853699043e-08
7.90608903715318e-08
7.17733685727926e-08
6.42033709227926e-08
5.64591669657609e-08
4.88305266926911e-08
4.14745163788362e-08
3.38334650582973e-08
3.08040345766293e-08
3.59592693100847e-08
3.90910976032384e-08
4.06155746775824e-08
4.00869394331502e-08
3.83739758900211e-08
3.62914836673983e-08
3.4008017254573e-08
3.1225163258033e-08
2.83055515355808e-08
2.54872201659525e-08
2.28595531917651e-08
2.01790596702495e-08
1.76841816322745e-08
1.55211622073613e-08
1.36666527068789e-08
1.21071217403026e-08
1.09313749020346e-08
1.03182286847465e-08
1.01385344161597e-08
1.05340995211437e-08
1.19101150234418e-08
1.45741317697433e-08
1.58233013215833e-08
1.15714326427519e-08
6.77696641049747e-09
3.76856461483178e-09
4.23474574391321e-09
1.52273328842765e-06
1.71311224247639e-06
7.85947315522337e-07
2.21375041215743e-07
2.0718613050981e-08
1.17285089632278e-08
1.41018907831202e-08
1.41144935583162e-08
1.53792838009549e-08
1.96602680881696e-08
2.83571721786235e-08
4.44081460006591e-08
7.23833905517435e-08
1.18223333399082e-07
1.89819810249922e-07
2.94027893684154e-07
4.29893623939207e-07
5.88735281531139e-07
7.56064683590735e-07
9.01738079351707e-07
9.87361059216642e-07
9.79878477415953e-07
8.62281564386062e-07
6.544284143323e-07
4.32350115248963e-07
2.5173379875389e-07
1.44806508257023e-07
1.12548282802855e-07
2.17470606048157e-07
4.70010922031106e-07
6.36394388563463e-07
8.30278668635352e-07
1.3860174117384e-06
2.4512115737776e-06
3.96127034187967e-06
5.86173904814642e-06
8.04470965983748e-06
1.03088789008647e-05
1.24696048442957e-05
1.44263969097797e-05
1.61482823619396e-05
1.76446819406505e-05
1.89404426088565e-05
2.006370882211e-05
2.10400929387213e-05
2.18913983059048e-05
2.26347493245574e-05
2.32848902818908e-05
2.38553000127865e-05
2.4357907039762e-05
2.48040689255159e-05
2.52056931754937e-05
2.55758359918711e-05
2.5919191457485e-05
2.62257546034921e-05
2.64892147790709e-05
2.67094770342943e-05
2.68795813676009e-05
2.70211654342015e-05
2.71337545015397e-05
2.72180071413766e-05
2.72739973043177e-05
2.73007604795084e-05
2.7297271147342e-05
2.72614105404042e-05
2.71909890922002e-05
2.70834000394563e-05
2.69354121720081e-05
2.67436397929372e-05
2.65045770450065e-05
2.62147204186446e-05
2.58707033963085e-05
2.5469369127321e-05
2.50081966769964e-05
2.44855599852016e-05
2.39007226565363e-05
2.32537410243975e-05
2.25442281937508e-05
2.17712335367297e-05
2.09331994731896e-05
2.00298412217407e-05
1.90595082618488e-05
1.8023748417954e-05
1.69200697694518e-05
1.57516810861668e-05
1.45154985115782e-05
1.32204490444262e-05
1.1861840686886e-05
1.04608952164718e-05
9.05862642052762e-06
7.70675702249449e-06
6.29720003730763e-06
5.76184510330745e-06
6.84392465208623e-06
7.45881609404652e-06
7.7677182752684e-06
7.6748362602661e-06
7.36115625584488e-06
6.98194191913765e-06
6.55194326422946e-06
5.99860135671679e-06
5.41271322240009e-06
4.8427295776917e-06
4.30627794213942e-06
3.75885116916575e-06
3.27365247776182e-06
2.86592418049736e-06
2.52096687171892e-06
2.236484968472e-06
2.03021910941207e-06
1.92495818141755e-06
1.87648902434163e-06
1.92476372437328e-06
2.12959954132219e-06
2.47714547470397e-06
2.45391221849256e-06
1.66127983595398e-06
1.00276958133555e-06
6.25584478688664e-07
7.7864565485859e-07
2.55915049404189e-05
3.00528598038874e-05
1.63058921503912e-05
4.94171479715784e-06
5.20491504318862e-07
2.61746101580437e-07
3.13127468639485e-07
3.15365038908208e-07
3.42305091104694e-07
4.34408798702475e-07
6.24928297609266e-07
9.7626998768788e-07
1.58586381377878e-06
2.57533152649023e-06
4.09463557111002e-06
6.32618958513671e-06
9.21906562862789e-06
1.25441124968338e-05
1.59606609388438e-05
1.88547735907494e-05
2.05071209633105e-05
2.0316514330911e-05
1.79513788213879e-05
1.39614422201849e-05
9.6248203676681e-06
5.74652207556728e-06
3.27026693638992e-06
2.46482079611745e-06
4.8766420186288e-06
1.02159691226621e-05
1.33578155024136e-05
1.71325538980982e-05
2.82481330705327e-05
4.70115920279413e-05
6.98503291040614e-05
9.34990912461465e-05
0.000115708594556058
0.000135146145149815
0.000151566514251227
0.000165317614016371
0.000176890236625983
0.00018673821965195
0.000195225891686328
0.000202631817460574
0.000209164531628463
0.000214980641889757
0.000220199667824586
0.000224919121634616
0.000229220676531029
0.000233172578435773
0.000236832866362076
0.000240254879806709
0.000243567591584535
0.000247001407583058
0.000250462790902633
0.000253677057108331
0.00025666148890028
0.000259405026643364
0.000261964419717722
0.000264326721000281
0.000266481860274565
0.000268415611159044
0.000270106992653922
0.000271534208251074
0.000272668512666569
0.000273480858793357
0.000273939952040887
0.000274010901479354
0.00027365827653859
0.000272846625229785
0.000271541427804028
0.000269709986182396
0.000267321930414545
0.000264351957141947
0.000260781728098194
0.000256599925280349
0.000251801266991432
0.000246377712740947
0.000240316654881251
0.000233600360460163
0.000226217558131509
0.000218145510560441
0.000209378914214152
0.000199882330709687
0.000189646251522876
0.000178611115500747
0.000166781964256361
0.00015406006577339
0.000140480383879051
0.00012669844773302
0.000113376246311226
9.86597585856267e-05
9.0845649562534e-05
0.000101088552725867
0.000108268695864996
0.000111715746694843
0.000110826290264812
0.000107347781104933
0.000102908305884468
9.76625663434256e-05
9.08056157637409e-05
8.32106222070923e-05
7.54897760905192e-05
6.79079435613265e-05
6.00153733787639e-05
5.27500398790783e-05
4.64670545144839e-05
4.10657804651894e-05
3.65284282629001e-05
3.31055848830128e-05
3.1068116545166e-05
2.974403076281e-05
2.95209585038344e-05
3.09765598343235e-05
3.3739805378148e-05
3.21326671491386e-05
2.59558714393698e-05
1.59887513405929e-05
1.15797478314865e-05
1.34542394241367e-05
8.69708089969672e-05
0.000113894751542727
8.42715018438808e-05
3.59023842446812e-05
4.87851470811999e-06
2.12099910027536e-06
2.52576830656749e-06
2.56667751465714e-06
2.77805466265452e-06
3.49331329274739e-06
4.96822712414949e-06
7.6439855847939e-06
1.21918970213021e-05
1.93453278737682e-05
2.98439151609417e-05
4.42979151689323e-05
6.16488298846593e-05
8.00679635098678e-05
9.76144640764368e-05
0.000111509592808997
0.000118929074948985
0.000117626224684021
0.000106137735748382
8.58157311938824e-05
6.24430559025548e-05
3.97359123353337e-05
2.39002669896245e-05
1.88499902665262e-05
3.6111841033357e-05
6.66390844021237e-05
7.90183166139815e-05
9.32405672381134e-05
0.000129293286747344
0.000180801724604716
0.000241635643949859
0.000306121548947893
0.000367061265773807
0.000420187617490121
0.000465019458638736
0.000502658671572559
0.00053450002746914
0.000561796361433143
0.000585543828437531
0.000606496204460634
0.00062520939945359
0.000642092552162053
0.000657450832646492
0.000671525535935987
0.000684512073655231
0.000696571786064
0.000707873455763865
0.000718801298556383
0.000729506095735318
0.000739982312042194
0.000750035018629371
0.000759364425774629
0.000768012012677251
0.000775977362042814
0.000783315548670889
0.00078999571484111
0.000795988677979675
0.000801256933716404
0.00080574995743376
0.000809416197900182
0.000812190839072164
0.000814009865445627
0.000814806482825718
0.000814507794882621
0.000813040775888692
0.000810333715015182
0.0008063181549503
0.000800930346652096
0.000794112100602594
0.000785815907011673
0.000776009133876415
0.000764673950637205
0.000751803903952627
0.000737385071442643
0.000721391169658334
0.000703783947288763
0.000684534618197624
0.000663592056624162
0.000640932782680523
0.000616475284312959
0.000590172040670936
0.000561870123051384
0.000531512751959487
0.000498843303247635
0.00046378217168798
0.000427672399650141
0.000392261837462661
0.00035301511116424
0.00033042647908821
0.000354123534253925
0.000375825878084681
0.000387609031161705
0.000388105792954533
0.000381232042147755
0.000371133205842325
0.000358262970357355
0.000340251115120669
0.000318881020382859
0.000295809770218617
0.000271831774010532
0.000245648012622611
0.000220158019985577
0.000197125122702556
0.000176764786928426
0.000159275931459689
0.000145759155412334
0.000137485126992106
0.000132090913440599
0.00013054982190774
0.000135033709346809
0.00014434211716459
0.000139409544041109
0.000107202279791347
5.22548235329509e-05
2.97982342820351e-05
3.97584142572809e-05
0.000130800740239679
0.000195661701796659
0.000183742177952894
0.000114595891358592
2.56475240965119e-05
9.88100839702602e-06
1.15555813008159e-05
1.18566585449459e-05
1.27721056327784e-05
1.58116686598843e-05
2.19064858915907e-05
3.24956665507152e-05
4.94833858703635e-05
7.42605869601281e-05
0.00010758065132145
0.000149215832630684
0.000195035987848628
0.000240215231861935
0.000280635363347452
0.000310920134342091
0.000325888285703715
0.000321613635491799
0.000295285304539095
0.000247889045054919
0.000190530022717645
0.000131086316480869
8.62386408755974e-05
7.35552142146407e-05
0.000127743585652592
0.000195412195013572
0.000207208185289264
0.000222996662114743
0.000276367438982406
0.000364193220741194
0.00048024758679922
0.000607812032147193
0.000727518594342407
0.000830702756368383
0.000917037987166212
0.000989047802602253
0.00104965943396286
0.00110142142791671
0.00114632222053791
0.00118584319902807
0.00122106188110873
0.00125276051775251
0.00128151420063622
0.00130777217493963
0.00133190157045572
0.00135424089164372
0.00137530560005556
0.00139532383994398
0.00141437486845562
0.00143243132255575
0.00144928232666187
0.00146471458964865
0.0014788034667767
0.00149157236343071
0.00150307244930303
0.00151327217760499
0.00152213625231606
0.00152961626961494
0.00153564452862327
0.00154015074319833
0.00154304481092111
0.00154423719027517
0.00154363464171221
0.00154113442442622
0.00153663232663984
0.00153002554901377
0.00152121570286978
0.00151011067114158
0.00149662600761624
0.00148069193560405
0.00146226038498417
0.00144130471775957
0.00141781240134004
0.00139175692587442
0.00136308988193328
0.0013317444729536
0.00129766437231071
0.00126076559901114
0.00122099507704426
0.00117821774511904
0.00113231864695329
0.00108302168452385
0.00103015160342919
0.000973257453714501
0.000912034668594521
0.000847837766948001
0.000783254400787538
0.000711594499609867
0.000668022717278847
0.000701800786978914
0.000743006390439659
0.00077011864850714
0.00077892619827106
0.000774694422250891
0.000764024235819642
0.000747906585225187
0.000722274206800758
0.000689147850991807
0.000651108623863259
0.000609453150451105
0.000561780003260307
0.000512919517740138
0.000466897740022466
0.000425076182292765
0.00038849175321233
0.000360009772557372
0.000343310081367067
0.00033431401364948
0.000334512714916448
0.000348469398253262
0.000374009524882716
0.000373447811814314
0.000299504418334372
0.000157458297839482
6.7963918877659e-05
8.6931117285812e-05
0.000162615577208657
0.000234702756460688
0.000271071291791721
0.000215093140194866
8.33885387281581e-05
3.2291965488678e-05
3.59946413379021e-05
3.71850306158546e-05
3.96898784967535e-05
4.79150735287678e-05
6.37386837853245e-05
8.97280956439117e-05
0.00012868012450431
0.00018141314073525
0.000247433978538914
0.000324495389417334
0.000404703090223466
0.000480162578466762
0.000544820626972713
0.000591082128673378
0.000611798781421702
0.000601925590308049
0.000557905260732625
0.000480008009453909
0.000382904824663914
0.000279686260652443
0.000198478528047849
0.000179818487014754
0.000278128807084979
0.000363189453147615
0.000356770548347593
0.000369846461802285
0.000447157008115814
0.000589434930399739
0.000782839988866128
0.000990237031131575
0.00117976903809638
0.00134105834607833
0.00147522209736523
0.00158677214960466
0.00168045976738021
0.00176030241811627
0.00182939913490279
0.0018900457378524
0.00194390794717904
0.00199219315813921
0.00203579000328833
0.00207539732809678
0.00211160643943347
0.00214502929765434
0.00217617550794166
0.00220522949856055
0.00223231203994071
0.00225741279397669
0.00228037847259035
0.00230111225502429
0.00231973171200504
0.00233629327818548
0.00235085670427544
0.00236340537819777
0.0023739102929
0.00238232342882641
0.00238857039296645
0.00239257088582516
0.00239421747176909
0.00239340096801365
0.00239000675678403
0.00238390629266322
0.00237496635059962
0.00236305385595936
0.00234804017413581
0.00232980340598298
0.00230823053831948
0.00228322580366926
0.00225472077122767
0.00222267378268001
0.00218705783004262
0.00214782481835817
0.00210489569114654
0.00205816861211029
0.00200755469504448
0.00195293900709364
0.00189423003395945
0.00183122187224605
0.00176370685667374
0.00169127268714194
0.00161358541258755
0.00152998244859851
0.00143985784215272
0.00134410704459985
0.00124556510878503
0.00113569559235312
0.00106443344423704
0.00110028622233245
0.00116024881154382
0.0012069438936123
0.00123028622956476
0.0012352844517098
0.00123020170876456
0.00121660153618947
0.00118909237783886
0.00114939879906146
0.00110069225640007
0.00104460721303655
0.000977725446846535
0.000906235331453613
0.000836564169546724
0.00077175324088447
0.000714202554052835
0.000669161349480573
0.000643718188432041
0.000633054137993437
0.000639090208619721
0.000668171869412917
0.000716607856059846
0.000729934276194154
0.000621353551076997
0.000362135335848729
0.000130926819400883
0.0001294868558631
0.000190635075529115
0.000255075723308027
0.000320257629783855
0.000307228754308861
0.000178225375396446
8.0756909571072e-05
8.40700655887743e-05
8.70676924960357e-05
9.18802591199915e-05
0.000107798359184413
0.000137517016339744
0.000184251807764639
0.000250813268976934
0.000336450659144949
0.000438974032383537
0.000553559254213331
0.000668647666176918
0.000773423537927417
0.000860076915393609
0.000919218418464636
0.000942275698013068
0.000923752250993809
0.000860167579556127
0.000751500630988251
0.000614087641223233
0.000466965892489044
0.000349550180730087
0.000327846480024129
0.000458567865867137
0.000533256884348262
0.000504894427464939
0.000526307403365582
0.000645784914717292
0.000864784722117816
0.00115199677959303
0.0014465121400195
0.00170956560691775
0.00193184268366352
0.00211645606438692
0.00226996567123795
0.002398911623171
0.00250874974007545
0.0026036810393962
0.00268682252151632
0.00276044365969655
0.002826196378469
0.00288530564618313
0.00293874676312671
0.0029873574008374
0.0030319366713759
0.00307293402340832
0.00311061633056602
0.00314516461599683
0.00317662723471094
0.00320495119068733
0.00323015854758243
0.00325241703313832
0.00327182455752105
0.00328846328206424
0.00330234326169713
0.00331345162512279
0.00332174952643198
0.00332716379231481
0.0033296106063156
0.00332897097559631
0.00332511997653297
0.00331792482170488
0.00330723365144082
0.00329288526514193
0.00327471625747818
0.00325256686619747
0.00322628375731034
0.00319572294992232
0.00316075901781301
0.00312129808208054
0.00307727689259492
0.003028645645005
0.00297532648039341
0.00291720327384364
0.00285413646434149
0.00278600587962265
0.00271266654893275
0.00263396911271725
0.00254962728770268
0.00245932526707503
0.00236251101376745
0.00225866664626728
0.00214691216621401
0.00202630166244326
0.00189709751931735
0.00176191264141688
0.00161041041481471
0.00150553550911382
0.00153421319134672
0.00160804396052173
0.00167485600489285
0.00171643454481976
0.00173567968539094
0.0017412716541479
0.00173507205717212
0.00171080059156251
0.00166963881845842
0.00161499715704624
0.00154863693922693
0.00146633023064462
0.00137506014258033
0.00128343911087392
0.00119639446680226
0.00111802542377709
0.0010561815943473
0.00102157403394015
0.00100962684153414
0.00102265348086678
0.00106759717242348
0.00113896432474235
0.00117208809257632
0.00103233928915823
0.000717085539320361
0.000257489276539535
0.000164988967987383
0.000222115224090131
0.000274662701916097
0.000343605433608203
0.000366854310012286
0.000283354839146983
0.000159973431777911
0.0001586340074787
0.000164418833154871
0.000171919054779851
0.000196801943732499
0.000242552008584514
0.000312500325208603
0.000408837300205008
0.000528884643546244
0.000668580244741053
0.000820056820912287
0.00096824729277952
0.00109951314769803
0.00120440122980388
0.00127216508670276
0.00129346147913207
0.00126304761266995
0.00117836916381943
0.00103979390675795
0.000864111636288868
0.000675767648159949
0.000525069969766428
0.000501086169261891
0.000644214850670681
0.000690273299387067
0.000650242836234987
0.000697752605710918
0.000880526121529925
0.0011955108980932
0.00158473232997803
0.00196761911447284
0.00230460180917377
0.00258855114931418
0.00282457754126893
0.00302114495492789
0.00318644715982939
0.00332728909113848
0.00344892616990437
0.00355527634329373
0.00364920930042382
0.0037328271107542
0.0038077015083183
0.00387509359340882
0.00393609251394561
0.00399155701810574
0.00404200101460376
0.00408778758685132
0.00412917919415267
0.00416631607264712
0.0041992671836326
0.00422816933024223
0.00425324814089399
0.00427465116347618
0.0042924952196919
0.00430682621539252
0.00431765565731242
0.00432496125517957
0.00432867772076155
0.00432872334310153
0.004324972668765
0.00431728859230442
0.00430552317621266
0.00428950383211127
0.00426904291533629
0.00424394738039891
0.00421402643659116
0.0041790948513202
0.00413897649027125
0.00409351385684863
0.00404258356915823
0.00398609506336064
0.00392396859555014
0.00385609002932416
0.0037823022026272
0.00370243023805176
0.00361632757529822
0.00352380589824692
0.0034246468030051
0.00331847906561626
0.00320486968321923
0.00308312728462299
0.00295253564669443
0.0028119957066565
0.00266020678089753
0.00249678369494193
0.00232374553483296
0.00212900509333368
0.00198609315727015
0.00199906883254547
0.0020799268388755
0.00216449464094348
0.00222550266444152
0.00226214154802758
0.00228204212726735
0.00228684895470373
0.00226975916133834
0.00223137072681522
0.00217500732505571
0.00210233248255197
0.00200851021418602
0.00190082684872076
0.00178971646488486
0.00168195058854762
0.00158350019216023
0.00150468843237398
0.00145948151603044
0.00144436163607928
0.00146219928420881
0.00151958391388946
0.0016101240896977
0.00166591241110414
0.00150419834533056
0.00117463606373395
0.000477453630304662
0.000230588145634708
0.000275900102237802
0.000301061014926845
0.000362501229278758
0.000399434404102201
0.000373916844741718
0.00025728642406236
0.000256216097230574
0.000266847148169976
0.000277575225829544
0.000311920375398305
0.000374496963216954
0.000468430702989153
0.000594971698069404
0.000749380188766722
0.000925454977001378
0.0011119265358785
0.00129031650032593
0.00144427470402633
0.00156282895187727
0.0016343345480577
0.00164938182282989
0.00160374228027784
0.00149659642300317
0.00132944137889776
0.00111892680830381
0.000893696555950681
0.000713838018397277
0.000686021420642719
0.000820561053956348
0.000833340162597856
0.000798734261463597
0.000891623934118618
0.00115834153431598
0.00158272844638411
0.00207558368607965
0.00254522220552271
0.00295504246639395
0.00330020272138059
0.00358765177216482
0.00382756013352202
0.00402961507249119
0.00420186458975111
0.00435055722616134
0.00448038043807829
0.00459479129837793
0.00469633963157631
0.00478694562372486
0.00486815003743773
0.00494126558263287
0.00500719747674741
0.00506657902847216
0.00511988149706296
0.00516746810827435
0.00520959395611528
0.00524645921141118
0.00527831068200366
0.0053054390513235
0.00532804903093131
0.00534630233508612
0.00536028823014646
0.00537004980330883
0.00537558791026741
0.0053768512583466
0.00537376563974935
0.00536620424576046
0.00535402172293791
0.00533705852751795
0.00531512469045016
0.00528800876925382
0.00525549012190736
0.00521734857561774
0.00517336823081325
0.00512334130852455
0.00506707754935585
0.0050044216032113
0.0049352513563928
0.0048594517267589
0.00477686790198183
0.00468730206267443
0.00459055059320828
0.00448643681395166
0.00437471867580299
0.00425510333355777
0.00412713311750371
0.00399025364554633
0.00384363633947372
0.00368636041036545
0.00351710777967049
0.0033342225092562
0.00313669087312005
0.00292575180509161
0.00268758950805366
0.00250384694704784
0.00249405267574853
0.00257462021234453
0.00267271742070632
0.00275227188321108
0.00280769012349024
0.00284403727084746
0.002862107750706
0.00285489595844714
0.00282250359435275
0.00276785112660485
0.0026922950903732
0.00259056227064758
0.00246977601460865
0.00234177615907878
0.00221494051068943
0.00209713393736761
0.00200065296454109
0.00194199317620531
0.00191966712988333
0.00193760565393258
0.00200176692901937
0.00210705930603076
0.0021877658340293
0.00202172219583948
0.00167117922469024
0.000832006237759154
0.000394697938599584
0.000400328943325604
0.000346009730416056
0.000386289974746988
0.000424389225774427
0.000409844481918659
0.000347741663628664
0.000367477456451564
0.000389563671724619
0.000404788598626674
0.000448934260931784
0.000528574829926964
0.000646504269831933
0.000802876357314298
0.000990792813381636
0.00120160752036662
0.00142042791880963
0.00162543621185361
0.00179771161267925
0.00192490822646453
0.00199494242729121
0.00199905007206107
0.00193479669163065
0.00180386960395871
0.00160962666307339
0.0013683787848087
0.0011116202174345
0.000907412583422683
0.000872522499123966
0.000980872701172394
0.000967788583147518
0.000957488652055844
0.00111511928507393
0.00148407882231235
0.00202476108409455
0.00261876562467682
0.00317219686143364
0.00365286377838173
0.00405799762455772
0.0043961926586403
0.00467911565418946
0.00491778230060367
0.00512137250276154
0.00529706053780675
0.00545026570551298
0.00558501345698159
0.00570429269525326
0.0058103675331709
0.00590505223900297
0.00598982322200052
0.00606569130063834
0.00613341959550429
0.00619359818373566
0.00624670624146272
0.00629312763917848
0.00633319586138116
0.0063672637276505
0.00639569315414295
0.00641875258050899
0.00643665695433287
0.0064495452165006
0.00645749849158299
0.00646054689899966
0.00645865903936825
0.00645177368799684
0.00643976810495149
0.00642249330465667
0.00639978251424596
0.00637143276514392
0.00633721280326081
0.00629687800067487
0.00625018218360822
0.006196881867628
0.00613673999492916
0.00606953474854453
0.00599507822434718
0.00591321438854482
0.00582378948731609
0.00572660617437869
0.00562143130735393
0.00550804072090915
0.00538621643825889
0.00525566016195562
0.00511600322904842
0.00496670245926048
0.00480708218247725
0.00463618013159746
0.00445287149349189
0.00425562096698454
0.00404242616104192
0.00381167703091691
0.00356374970199978
0.00328316622921733
0.0030573636285363
0.00301939342847616
0.00309274705147022
0.00319916727753149
0.00329483417028128
0.00336889043505781
0.00342236699892577
0.00345460162507982
0.00345874085865991
0.00343454245421277
0.00338416540155065
0.00330850305554464
0.00320198619292771
0.00307106953905494
0.0029285913813025
0.00278412310674634
0.00264729830404293
0.00253142389871638
0.00245473463973461
0.00241956229505862
0.00243193693137162
0.00241034559158794
0.00245809417575672
0.00272326010506017
0.00257288039886495
0.00218871006016448
0.00130125453086564
0.000653783783203129
0.000662964218302108
0.000439379636408524
0.000420710686583784
0.000450644790438505
0.000433133897779075
0.000412917323420638
0.000476474132394389
0.000526804869637252
0.000549404840108997
0.000603850549863931
0.000700631818048788
0.000842220135784138
0.00102759754064151
0.00124763582316735
0.00149097554198324
0.0017390016865098
0.00196663691430989
0.00215254852205801
0.00228316986802722
0.00234641117982595
0.00233483534959603
0.00224857583658329
0.00209255610569378
0.00187269757314777
0.00160500626158703
0.00132255930164276
0.00109904648343119
0.00105282972316736
0.00112408661283452
0.00110067003178868
0.00113336304501137
0.00137473766312822
0.00186036022765862
0.00251835596384849
0.00320881814147952
0.00384233332115636
0.0043911882050251
0.00485445037888427
0.00524215861725681
0.00556726619795768
0.0058419538405811
0.00607642102620763
0.00627869696818675
0.00645489073919224
0.00660957224506132
0.00674615540065212
0.00686723660302968
0.00697488739116343
0.00707072575576942
0.00715590108586461
0.00723131340744557
0.00729767990338859
0.00735560594625904
0.00740561083625307
0.00744815934318729
0.00748370702036877
0.00751269197111652
0.00753545178915315
0.00755226135027919
0.00756331466549334
0.00756873677835473
0.0075685928927401
0.00756287736283855
0.00755154765544609
0.00753449097279165
0.00751156010424032
0.00748258636669376
0.00744735927894438
0.00740563312708841
0.00735714448243897
0.00730162626779785
0.00723881230291555
0.00716844044500381
0.00709026041802898
0.00700405315362907
0.00690962836667685
0.00680679248897771
0.00669530816278464
0.00657491628312431
0.00644537420924376
0.00630641742635355
0.00615769258782361
0.00599875733975661
0.00582898636543
0.00564758685870769
0.00545346829221077
0.00524530843811394
0.00502135936011214
0.00477928790073467
0.00451692531989624
0.00423376210863815
0.00391278677922656
0.00364513833703654
0.00357524532226867
0.00363533861872399
0.00374457639662206
0.0038528866370369
0.00394419659414258
0.00401410182797764
0.00406007037963001
0.00407588692183061
0.00406111641304435
0.00401668310779414
0.00394298004005285
0.00383424057139817
0.0036956326795801
0.00354065726476914
0.00337947503590515
0.00322321493785639
0.00308468472797672
0.00298396268288062
0.00283093400018735
0.00263509109722174
0.00251491755665108
0.00251125116658963
0.00292551867695298
0.00315040664961226
0.0027284080930946
0.00183357862216058
0.00101611203157383
0.000978809885253268
0.00064089897815584
0.000473802610220009
0.000482889141602358
0.000460472327828054
0.000471275357254819
0.000563443379528192
0.000671110792985701
0.000707563914646542
0.000773192445161665
0.000887181934944719
0.00105190791824299
0.00126515203668655
0.00151552932922763
0.00178877493126883
0.00206255260834096
0.0023086292331893
0.00250341974768105
0.00263227897129672
0.00268349293181745
0.0026515720558722
0.00253995921298142
0.00235751837218783
0.0021133764917363
0.00182340738189019
0.00152114424796818
0.00128316861285176
0.00122080211663257
0.00125335720256558
0.00123896135394095
0.00133284956749646
0.00167602881937921
0.00228768990853461
0.00305949292772272
0.00384064814863842
0.00455000263831861
0.00516384298711717
0.00568288032933747
0.00611839443557682
0.00648442163615668
0.00679414855826994
0.00705868239015829
0.00728683426957823
0.00748535746502781
0.00765933822934573
0.00781259687981142
0.00794804503276233
0.00806799583574626
0.00817420134189929
0.00826796705997886
0.0083503341742126
0.00842215224815848
0.00848415822794025
0.00853700795118319
0.00858129300664181
0.00861756875868248
0.00864635311980918
0.00866805707048005
0.00868302071604278
0.00869149779111863
0.00869366267618315
0.00868962128433174
0.00867939963277366
0.00866297987519347
0.0086402655099619
0.00861111729577383
0.00857537088674845
0.00853281483174568
0.00848319557461933
0.00842623751806799
0.00836165933763949
0.00828917866949999
0.00820851413526785
0.0081193918431317
0.00802156485802885
0.00791481033706016
0.0077988959829489
0.00767355182764337
0.00753850469055571
0.00739349108497404
0.00723820175513957
0.00707223245429421
0.00689507249473783
0.00670602042743558
0.00650417442293205
0.00628832380910777
0.00605696129703323
0.00580813502459363
0.00553920283673802
0.00524747800668585
0.0049315785124277
0.00457314910102489
0.00426517799789005
0.00416119198050981
0.00420310225060688
0.00430984468785067
0.00442675483268839
0.00453298493433256
0.00461731483725608
0.0046753505872472
0.00470216598423559
0.00469716973117316
0.00465943045741518
0.00458904965126696
0.00448003612370177
0.00433546957919645
0.00416933569002342
0.00399151799075061
0.00381426340487553
0.00364845520656361
0.00329403704795765
0.00299145055221647
0.00277055027314589
0.00263039639814016
0.00258535322587864
0.00286020170928456