/*--------------------------------*- C++ -*----------------------------------*\
  =========                 |
  \\      /  F ield         | OpenFOAM: The Open Source CFD Toolbox
   \\    /   O peration     | Website:  https://openfoam.org
    \\  /    A nd           | Version:  7
     \\/     M anipulation  |
\*---------------------------------------------------------------------------*/
FoamFile
{
    version     2.0;
    format      ascii;
    class       volScalarField;
    location    "1000";
    object      omega;
}
// * * * * * * * * * * * * * * * * * * * * * * * * * * * * * * * * * * * * * //

dimensions      [0 0 -1 0 0 0 0];

internalField   nonuniform List<scalar> 
15600
(
1974.60613735576
1972.648325243
1984.42791022013
2055.78059759582
2222.67690004102
2356.686868098
2378.42128442444
2300.00018532342
2153.97031116953
1966.45861756929
1762.78479607635
1583.64547894744
1435.67966376577
1312.2349065017
1208.29531934702
1120.03744959636
1041.43040276847
963.351277377799
885.918292649371
810.58135114486
738.629427726828
671.777660481123
614.580438156229
568.667823075621
533.493089366932
508.868650769501
494.93483283514
492.061840314983
493.651539705996
493.651534338166
493.651534338173
493.651534338186
493.651534338214
493.651534338152
493.651534338164
493.651534338193
493.651534338173
493.651534338179
493.651534338187
493.651534338166
493.651534338199
493.651534338138
493.651534338171
493.651534338152
493.651534338165
493.651534338172
493.651534338187
493.651534338193
493.6515343382
493.651534338166
493.651534338172
493.651534338165
493.6515343382
493.651534338165
493.651534338146
493.651534338186
493.65153433818
493.651534338194
493.651534338178
493.651534338193
493.6515343382
493.651534338185
493.651534338193
493.651534338201
493.65153433813
493.651534338152
493.651534338177
493.651534338139
493.651534338172
493.65153433818
493.651534338191
493.651534338182
493.65153433818
493.651534338178
493.651534338194
493.651534338178
493.651534338152
493.651534338152
493.651534338159
493.651534338193
493.651534338166
493.651534338166
493.651534338171
493.651534338213
493.651534338157
493.651534338194
493.65153433817
493.651534338157
493.651534338187
493.651534338165
493.651534338165
493.651539706002
492.061840314982
494.934832835202
508.868650769232
533.493089366357
568.667823075228
614.580438156834
671.777660481449
738.629427726959
810.581351143299
885.918292648864
963.351277377646
1041.43040276902
1120.03744959597
1208.2953193011
1312.23490651725
1435.67966381516
1583.6454790092
1762.78479592733
1966.45861764716
2153.97031128258
2300.00018510395
2378.42128451691
2356.68686814436
2222.67690004416
2055.78059756207
1984.42791022399
1972.64832524326
1974.60613735531
333.419505156551
331.034197096132
337.449241507736
345.801253650428
373.49488998997
396.145133825468
400.198373273865
387.348261595605
363.311348126171
332.134576282714
298.289202459463
268.311323778663
243.319312135532
222.216698210676
204.104681388877
188.776139050692
175.068762647515
161.57562878132
148.368181261715
135.72364744335
123.873187922798
113.067853171029
103.967064335496
97.1897284804973
92.2381826889594
88.3231025121334
85.154589203281
83.2144509176438
82.7910539854941
82.5518694561816
82.7835553534732
83.6145206654368
85.8752251007438
89.2654215566063
92.6011055983219
94.5499976557222
95.0865254897284
94.8531281592069
94.382609764327
93.9183229236328
93.5317374293848
93.2195271877786
92.95800550289
92.7219859710014
92.4915856093284
92.2523829069615
91.9966405605371
91.7197736856576
91.4182571433027
91.0903647886121
90.735665616328
90.3546244203691
89.9487992953346
89.5349336528791
89.1168399352647
88.6794656643398
88.2332617273874
87.8057430174554
87.3669001744774
86.9213634931
86.4724620135767
86.0234531447878
85.5779592206014
85.1392661461299
84.7109863424077
84.2965261239729
83.8991601517669
83.5221526267485
83.1685546300534
82.8412177195617
82.5427492585199
82.2754565055722
82.0413871613196
81.8421851060332
81.6790192004786
81.552518680462
81.4625267301094
81.4085271780933
81.3897611083419
81.4055945106338
81.4544750157779
81.5356147635379
81.6462644745077
81.7858929299615
81.9502723048709
82.1396487049181
82.3459413211676
82.5719761603533
82.7995364266485
83.0909288707138
83.5627137398824
84.1790380975665
83.6022948917562
82.7381939477881
84.8202228858054
88.737852230933
94.5638637355923
102.223341511837
111.732400725048
122.930845385084
135.379487766074
148.711393274177
162.725821469926
177.219706041393
192.307098653477
208.878537180384
227.92189783496
250.258634553313
276.730199825868
308.28821919765
344.175869061864
379.482829499104
409.37241164997
429.325842110625
436.730104336909
438.29155560248
464.093641850694
452.847219802674
400.003103283029
348.622666396024
129.260941344793
120.210603574647
115.642149784032
115.249160071493
122.759206503808
129.864416858279
131.170784497871
127.073169788775
119.53669532145
109.557893903244
98.3369101772798
88.3359476284365
80.0049669474471
72.9907349656235
66.9962711385776
61.4447963315679
56.3746136407629
51.5378230728504
46.9957682567031
42.866216383515
39.2053948123595
36.0746722261769
33.6412015921143
31.6128358299863
29.7990981697517
28.5293674273088
27.7846280499726
27.594122432565
26.7609351380491
26.4905354529357
27.1231937965686
28.4094442331242
29.8873354470587
31.9925536040486
33.5761281985598
34.1737888034594
34.2010375056515
34.0793535567561
33.9582920668832
33.8580677070531
33.7685801970349
33.678240670312
33.579466094723
33.4682045840659
33.3428471190108
33.203335056519
33.0504269458991
32.8852326414994
32.7091764051915
32.5240910698735
32.3326348584424
32.138179205906
31.9325250079238
31.6912671905859
31.4233039002624
31.1595030619259
30.9011456858509
30.6515107310479
30.4068941951588
30.1690442833016
29.9391333325659
29.7182347271435
29.5074814285093
29.3077723056616
29.1200818371497
28.9452091538323
28.7838497222494
28.6366621190683
28.5041904582737
28.386898743814
28.2851751795993
28.1993355717948
28.1296634433278
28.0763568639686
28.0395031088983
28.0190396271225
28.0146427449135
28.0259578771452
28.0527000489838
28.0948253388719
28.1520588152252
28.2247313766423
28.3124494357289
28.416256701041
28.5355816050942
28.6733268441238
28.8272158467495
29.00257445519
29.1895466910602
29.3094300664544
29.2763454422973
29.1980764850809
29.1306658535607
28.6058607442897
28.9486636217072
30.0017046777346
31.7283335410945
34.0535924263932
36.9209294235184
40.3111052491614
44.2530719029687
48.6460273485221
53.4535237292448
58.6639830494392
64.4889520605901
70.9783473828129
78.2880725279056
86.6531209221693
96.2623117617964
107.114241365138
118.63323195127
130.153842886703
140.01499818463
146.070892442381
148.261312413881
154.970100302074
169.9397392097
197.405604433815
185.318914188148
149.559623382817
100.238850494223
79.3642261050556
67.6085118707587
57.7249730716546
56.3927411141133
58.9770274064217
59.4373998901424
57.7334947222012
54.6441833401522
50.339461289184
45.3356618607434
40.7711874465428
36.8213368804013
33.3701212364451
30.3224744919406
27.4465991170588
24.8908915425608
22.6064089927884
20.5790026617006
18.8234141327072
17.3285613575982
16.104132327995
15.2184393362966
14.5979745559207
13.9850371070525
13.5688114290339
13.255267313054
12.9107537146184
12.1672469168087
12.2993215026478
13.6424025534313
15.8255064089494
18.228089438321
19.8205704373445
20.073193559681
19.6025356307798
19.0851937186056
18.7192628860005
18.4797940018476
18.317055531184
18.1963889517476
18.0969480058092
18.0067917312648
17.9192788167501
17.830927896756
17.7401135204914
17.646274838378
17.5494092015542
17.4498705876236
17.3482289039708
17.2444445885722
17.1326541189835
17.0116804021391
16.8827896687357
16.7506620907645
16.6224525256387
16.4983351590832
16.3789456350882
16.2636162731906
16.1529590644999
16.0473573304701
15.9471427984117
15.8526571432891
15.7641319124394
15.6818285471528
15.6059224744941
15.5365452223804
15.4738187529321
15.4178215127207
15.3686098690851
15.3262264721492
15.2907084506404
15.2621071775387
15.2404613327652
15.2257766906434
15.218000235463
15.2169744136854
15.222567746452
15.2347485350902
15.2536699264028
15.2794508010296
15.3126065726302
15.3534406815626
15.4033420507558
15.4630800594201
15.5361601023995
15.6236755744587
15.7320684001633
15.8609950256324
15.9783225174574
16.0320620922613
16.0793980494036
16.0821103922721
15.5897906518316
15.4840537191442
15.7822395764198
16.4259157667514
17.349503309361
18.4942657218561
19.8409726375762
21.4341864875972
23.244501199344
25.2627516766129
27.4997070486904
30.1074682634163
33.095480053737
36.4819116151612
40.3272612180335
44.6530883471072
49.2865693391167
53.6867805563013
57.7155771516274
60.7567771315293
61.8544245612194
61.2318129788107
63.407137867359
74.1607636659922
111.759082885237
144.137866761725
132.967846189875
98.6890243829097
72.3528491894199
55.4274244902094
40.9050298190695
31.8953619825084
31.8350972962715
32.0064832197643
31.3220349758116
29.9768824680844
27.8385235966671
25.2237321430322
22.7211028639964
20.4481457541849
18.4273881572057
16.657972655334
15.0517522910202
13.6907712317851
12.5284658143633
11.5212745114729
10.6554895560176
9.91610847871042
9.30527026642542
8.86099781973203
8.58712392425495
8.33640403638959
8.170461566975
7.97081937612141
7.57822696555494
7.16610210418762
7.78320048140303
9.55606744856646
12.1551424724845
14.3732768109567
15.0569251504066
14.4892525214488
13.6691336578707
13.0721573410973
12.6997388736149
12.4674693000389
12.3150253182212
12.2069914869531
12.1231388948319
12.0519840081016
11.9870338546387
11.9247030442548
11.8630959688864
11.8013036383491
11.7389205537332
11.6757747508533
11.6115169659217
11.5439379323871
11.4726982689663
11.3983912168937
11.3220792320542
11.2460233950799
11.1725088945773
11.1015616080044
11.033379536135
10.9678176175482
10.9051391453083
10.845501650223
10.7890326514907
10.735860203732
10.6860527092316
10.6396949891182
10.5968240084801
10.5574558356377
10.5216066900981
10.4892745663542
10.4604530367882
10.4351390969614
10.4133404995317
10.3950853552531
10.3804047771336
10.3693148685444
10.3618000446375
10.3577958549482
10.3572769633639
10.3603084617336
10.3670939331691
10.3778429668412
10.3930640793078
10.4132701129495
10.4398601651505
10.4740671121961
10.5190461621995
10.5768802621185
10.6534656111604
10.7519683429529
10.8644185973771
10.9662572304044
11.0951782189167
11.1494883638943
10.7837891100102
10.5768414865618
10.6240329959853
10.8928009187055
11.3317569974974
11.8922583573677
12.5542883693008
13.3445852242909
14.2519571049584
15.2702728031693
16.4055853598548
17.7464385208448
19.3022581077836
21.0689484357703
23.058429493511
25.2583153834973
27.5277991748049
29.5013382809262
31.1057268108285
32.1085987504729
32.1460522773294
31.4177521640987
32.0370962273422
36.6120651864293
60.8400408273732
108.865853788483
122.944479066398
92.6796016827787
72.306574666389
53.2002912636335
36.3080845092575
21.8885901092313
19.0747936719246
19.1122489426675
18.9535419905911
18.4215339327682
17.2970117698553
15.8137384801689
14.3168912373788
12.9225688981104
11.6941024422173
10.6364589871948
9.70324602927012
8.92802329893589
8.27530499386615
7.70957597560587
7.21764729394168
6.78993217117099
6.42798295100422
6.15642772879398
5.99296442376877
5.86647020639245
5.78166771446815
5.63270520314117
5.31011339175387
5.21758785584588
6.15552081153462
8.16962534583796
10.6889777073364
12.2464992896941
12.1646141561634
11.2694222966374
10.4614462017412
9.94488378201151
9.63255452318137
9.43842653869196
9.31100424793957
9.22119609256385
9.1524988599061
9.09548952502509
9.04476619138259
8.99726652305279
8.95129202165098
8.9059384045563
8.86068606586458
8.81511685552446
8.76841105766024
8.71983624141339
8.66972184036901
8.61849112484352
8.56688812666684
8.51608108885529
8.46696761152137
8.41955081680277
8.37391726423883
8.33003917639727
8.28804521811729
8.24800847069271
8.20998210931216
8.1740177758119
8.14013044523882
8.10834583904198
8.07866017697342
8.05105900601071
8.02553176009125
8.00206045109303
7.98062934894105
7.96123194113678
7.9438769815409
7.92859304580107
7.9154159389549
7.90437297363124
7.89547238715981
7.88869949246726
7.88408130605812
7.8817215084382
7.88182850749699
7.8846365940142
7.89065456044928
7.90051988559222
7.9155564357812
7.93709788349332
7.9678870474827
8.01028708341856
8.06948117329809
8.1498272944061
8.25268159455721
8.3681628261204
8.52711737391653
8.62081796280431
8.37388869323985
8.16548913024911
8.11737779481089
8.22516497872262
8.45253856420826
8.7612273556427
9.13337508304152
9.58435253736556
10.1089811205932
10.7022521221787
11.366847721963
12.1562112371917
13.0788259343941
14.1272787178845
15.2994575438811
16.5783677457133
17.8664024106437
18.9308711295104
19.7227271531554
20.1482295174036
20.0657171046673
19.6106207400228
19.8233209150829
22.0233617006817
32.9123028815097
73.456565162239
99.9387378381806
80.5081904239633
70.0856056685118
53.9361539642927
36.1171570812249
18.3252517949265
12.6178832544901
12.3709638337519
12.4701789472698
12.3238262609503
11.7257484133897
10.8527576276468
9.92617784899314
9.04598515190371
8.26982380362691
7.60024870280612
7.01573059512033
6.53305124993232
6.12902059262441
5.77785721912213
5.46890905773587
5.19542972570002
4.95829503240207
4.77480449283042
4.66370044052515
4.5927487110637
4.55098673840109
4.44966411871823
4.23362102950078
4.37927236962033
5.55119357518399
7.66821448386216
9.82749114595816
10.6662920349217
10.106614542158
9.16960109199878
8.47962224332949
8.06029311962446
7.8068716864367
7.64778454419063
7.54231016164361
7.46751468181907
7.41030294331257
7.36311974959358
7.32157702207554
7.28313812677755
7.24635109081428
7.21038975179634
7.1747146715954
7.13884426058951
7.10212639466398
7.06450041178971
7.02619323088856
6.98751912969244
6.94898117511246
6.91122053606922
6.87463965004279
6.83923893522356
6.80506514329164
6.77211895764951
6.74046730010681
6.71014488627294
6.68117197247457
6.65356681646205
6.62732305724018
6.6024419854433
6.57890538820066
6.55668958615337
6.53577617161658
6.51614440662455
6.49777850652746
6.48067379240197
6.46484158726152
6.45031105300725
6.4371193913978
6.42529838915778
6.41486790373257
6.40583848221791
6.39826072110046
6.39224847928023
6.3879965552728
6.38575943025843
6.38605959128506
6.38958003450639
6.39752191976131
6.4111954735472
6.43297991369219
6.46524958842905
6.51253856212549
6.57948624754731
6.67090827321816
6.784520848159
6.94798144172966
7.0651478679942
6.91039855581463
6.73122935431471
6.64855054488775
6.67826311503447
6.79766365243386
6.97770279098631
7.20368315574195
7.48461641975683
7.81755303634168
8.19833340204949
8.62812950342289
9.14142785369235
9.74557431284454
10.4339234494123
11.2009303439598
12.031408214896
12.8581843102922
13.5307931119942
14.0157814610166
14.2702604609742
14.2329199632031
13.9887107412025
14.0809928030218
15.4801335832901
19.8343694414617
46.0620575427021
74.7335576407926
65.4385239531898
65.0703648665073
54.5669563323087
37.7475093209677
17.9409753131996
9.50783351374929
8.65515719865895
8.84085384169734
8.86853359813887
8.55008211022479
8.01920403160855
7.42414668971404
6.84297304447491
6.32301378535718
5.86958128174187
5.4763245966943
5.15363230756036
4.88604977503357
4.65418232262131
4.4489303917109
4.26456984850926
4.10105743424209
3.97102622568011
3.89168499505912
3.8508736607006
3.83803273268041
3.78328450913909
3.67711176610887
4.02164271213633
5.38403670905901
7.46702071822149
9.12787826398245
9.3592970201841
8.56920179243236
7.71531368474104
7.15068386648232
6.81245003167943
6.60601959876745
6.47473217497639
6.38661115850999
6.32351247102147
6.27497730794008
6.23490963792548
6.1997294308328
6.16733509126617
6.13649462936206
6.10647397476608
6.07676244371243
6.04689107985359
6.01652192812569
5.9856942203486
5.95457203823774
5.92338951296298
5.89248526684696
5.86222829013325
5.83281692049729
5.80425274129571
5.77656496971665
5.7497602789393
5.72387456884455
5.69892341308119
5.67491113347031
5.65183985745914
5.62969401716652
5.60846358992013
5.58812486243587
5.56865147426814
5.5500225766763
5.53221732922706
5.51522071399818
5.49902902414614
5.48365379392219
5.46912206998943
5.45546841427438
5.4427235583927
5.4309106738715
5.4200510456761
5.4102022908637
5.401473580735
5.39404674540636
5.38820065910404
5.38445896023068
5.38348955883373
5.38636612422926
5.39432484347858
5.40943607631967
5.4339681076903
5.4718914686999
5.52773777274907
5.6073791922067
5.71259080660471
5.86856326312958
5.99605953267644
5.90847381452625
5.76605318455846
5.67629684961478
5.66692799364709
5.72636459452493
5.83356142382309
5.97719123892762
6.16263681096607
6.38771963245165
6.64895388624226
6.94690558012307
7.30510033396206
7.72989453266334
8.21616574649778
8.75834632041919
9.34420521862883
9.92718570087707
10.4081551843492
10.7634794153342
10.9686051546591
10.992317513086
10.8830197937583
10.936606426406
11.9186546282309
13.9114843481076
28.4913817959078
52.2495086628226
49.6539164604901
56.8628988576484
53.8183951519184
39.9408240700295
19.3555599361039
8.35161307840453
6.54164057224909
6.68622085986992
6.78757323223472
6.61733738639464
6.27994661540098
5.87936868139852
5.47514067544103
5.10656147495877
4.78197726221659
4.50293212643683
4.27675314185734
4.09249476066565
3.93484049019511
3.795587794823
3.66925363301211
3.55479995523508
3.46153076254571
3.4047228290974
3.38319178009487
3.39189826862436
3.380559264323
3.38136776178952
3.9122038937217
5.41937844582591
7.33779631028769
8.46169443939234
8.24936805265021
7.39596388878426
6.66329788569762
6.20521297409046
5.93027477401529
5.76040987472464
5.65096825888976
5.57659313778356
5.52275428616045
5.48099909751998
5.44635791857951
5.41588615902745
5.38783411116107
5.36115684850779
5.33521151833237
5.30954242924536
5.28374362649878
5.25766712532981
5.23134926236489
5.20491312558121
5.17853302687862
5.15243853688998
5.12685114582812
5.10187723922954
5.07752069803047
5.05380246346329
5.03072983943307
5.00832271374708
4.98658699685425
4.96551930152253
4.94511378196673
4.92535108662834
4.90621571904292
4.88768193762869
4.86972287865004
4.85231679704385
4.83544279171333
4.81908570284567
4.80324108083311
4.78791831700481
4.77313995902662
4.7589349520892
4.74532919827414
4.73234377551126
4.72000183544543
4.70835805573424
4.69751017217764
4.68763847266355
4.67903977882859
4.67221327311767
4.66778536057851
4.66670938865553
4.67012642817152
4.67984408035807
4.69797207183938
4.72799284641486
4.77415846708445
4.84243004347503
4.93660494742276
5.0795798921683
5.20809833573092
5.16761756353589
5.06059065752625
4.97680060820424
4.94906973244192
4.97414962187009
5.03781540608663
5.1319807643832
5.25984249958977
5.41938002664574
5.60770416506132
5.82519276978185
6.08855301380301
6.40337862936948
6.76601889490073
7.1720046635878
7.6120096393317
8.05424070637505
8.43317065825011
8.73022507525041
8.92613260541236
9.00094619562975
8.97579668865794
9.01433518640008
9.71101563725697
10.9003599256077
18.5784875128446
35.1603449808595
35.4732415782735
46.3525053402837
50.8826192904122
41.8059333180175
21.8666527059399
8.51656969638622
5.34843813557781
5.3296691474444
5.45586224518778
5.36535411677475
5.13968672670893
4.85668581023629
4.56199930380184
4.28863398562564
4.04668899860264
3.84143825454701
3.67848411624597
3.54962645510163
3.44232820666305
3.34898914242173
3.26406894377131
3.1855692827225
3.12018487084789
3.08134750879159
3.07430626126122
3.10092782667878
3.13075735036267
3.23771329157742
3.95002198827516
5.53828103560128
7.18265987397633
7.80196473951674
7.30650474282164
6.48641619630524
5.87460774863748
5.50190180300642
5.27633763209131
5.13531559796398
5.04336056910343
4.98012110839536
4.93382292552176
4.89756299249371
4.86725513963978
4.84046208831242
4.81572213644384
4.79215006665189
4.76918873198978
4.7464406947437
4.72359681416006
4.70057966774095
4.67742050787248
4.65421402947041
4.63109061596275
4.60820850994168
4.58570700631937
4.56364918532841
4.54204191665167
4.52090266997314
4.50023886000596
4.48006247325922
4.46037497155817
4.44116969337059
4.42243711245824
4.40415678563176
4.38631062166985
4.36887228064641
4.35181506495003
4.33511662920698
4.31875542311925
4.30271503466876
4.28698877238011
4.27158213356973
4.2565114962738
4.24179825196533
4.2274610661529
4.21351548795693
4.19998100055015
4.18690370765447
4.17437140237809
4.16256782833543
4.151794214516
4.14250919962606
4.13528711092671
4.13097125391564
4.13060035873204
4.1357564190381
4.14836966893756
4.17149741438049
4.20904132730347
4.266646418078
4.34900245390974
4.47672948106153
4.60015727330548
4.5915078446526
4.515122788232
4.44307978147487
4.40868484742242
4.41437187996224
4.45160281837638
4.5151888552565
4.60685866415659
4.72450991969097
4.86588459020827
5.03135185218497
5.23309665767129
5.47621377787955
5.75830140720173
6.07636273217373
6.42372496492267
6.7800365101621
7.10255905484091
7.3735120311231
7.57298759957479
7.6657027276675
7.6792314317126
7.74068736254943
8.22959271952543
9.09245441505506
13.2815460693638
23.6505874877144
24.6774881966487
35.3481686166126
45.7450686157094
42.6760527550303
24.8637817799394
9.69081886803848
4.76418320945648
4.43496739263595
4.55472103630035
4.50838430156874
4.34926014812924
4.140272504071
3.91701578455718
3.70729012002355
3.52181726543775
3.36743407904833
3.2486697241399
3.15913597553655
3.08835022204295
3.02921508300722
2.97605779581445
2.92600055143423
2.88355149428891
2.86046740373563
2.86608100732733
2.90948827313933
2.98046728854637
3.19633692558187
4.08031989822001
5.66789969505072
6.96386536437928
7.15575139824397
6.51037019739164
5.77075183881211
5.26562918607978
4.96063296798356
4.77420706304728
4.65642076151657
4.57878653764862
4.52479338561894
4.4848082893553
4.45314947260634
4.42643808831646
4.40265009786697
4.3805639028868
4.35943259874496
4.33877953321341
4.31826699370321
4.29766696748157
4.27693202856364
4.25608957240507
4.23521434126709
4.21440526189575
4.1937746242487
4.17341559740426
4.15337099227919
4.13365127590383
4.11427332859764
4.09524545184595
4.07657642067241
4.05826632152177
4.04030777014403
4.02268997295485
4.0053928069757
3.98839708811243
3.97167644643307
3.95520445530113
3.93895804970485
3.92291436718
3.90705479785162
3.89136930051432
3.87585831628256
3.86053101576045
3.84540009726882
3.83047556721603
3.81576536213269
3.8012818425997
3.78705961920164
3.77318216509693
3.75983563897213
3.74730947822835
3.7360164458076
3.72647553249937
3.7194305627207
3.71581782280967
3.71702374121809
3.72479471084471
3.74181557879301
3.77161708689112
3.81936726305596
3.89002597694796
4.00196204198892
4.11654541525168
4.12840110313994
4.07692422485196
4.01847981335954
3.98408211085347
3.97958718918107
4.00111347078141
4.04583964398319
4.11431533956078
4.20432554703475
4.31437624108157
4.44484852296324
4.60477326747585
4.79904177819676
5.02625462473667
5.28504057406647
5.57117073587304
5.87387364272592
6.16538695481051
6.40979966206686
6.58585056285873
6.6680445655885
6.69388903044026
6.80551744852013
7.17509492208412
7.86101091569435
10.3543030482471
16.539874524385
17.4971376557396
25.5829813287111
39.0461751047342
42.1666161496785
27.9491732941358
11.3370795353901
4.66724725122275
3.8352120304905
3.91611224027566
3.8944507138963
3.77625067990807
3.6156872155442
3.4412669356077
3.27633589044632
3.13148413879635
3.0140019929796
2.9277049850537
2.86751075909724
2.8245754891819
2.79230518597129
2.76493404697844
2.73880225756791
2.71653659141886
2.70835429823661
2.72645705724923
2.78733578725075
2.90188147661838
3.23270675716786
4.26360985232098
5.76066300324492
6.67541324750361
6.53880345002072
5.84199595378842
5.19947365604629
4.78394444114404
4.53300279914749
4.37819115143894
4.27951302148152
4.21386091331903
4.16771982450491
4.13315089011181
4.10545306546944
4.0818246531531
4.06058462481495
4.0407151126091
4.02159065189118
4.00281003520504
3.98409021781503
3.96526630782462
3.94630630385147
3.9272355937174
3.90811517640505
3.88902218424869
3.87004003448192
3.85123651309924
3.83264581896373
3.8142825535332
3.79616487647173
3.77830294571762
3.7607051499136
3.74337207720408
3.72629713258245
3.70946965229138
3.69287057638343
3.67648041920429
3.66027295215658
3.64422191089437
3.62830327242631
3.61249228300725
3.59676741964591
3.58111454942294
3.56552837029527
3.55001030100639
3.53456379126796
3.51918947232754
3.50388650920392
3.48865811963632
3.473527808266
3.45857825754947
3.44399274890389
3.430038059228
3.4170806656982
3.40558456783609
3.39620405775652
3.38977667420439
3.38751796021715
3.39099510327288
3.40256520779913
3.42539347219095
3.4641229732279
3.52364559505469
3.62015412912405
3.72379689008438
3.7479232568718
3.71576166201752
3.6706260282807
3.63985089872511
3.6309610449694
3.6438684390078
3.67738950305846
3.73095302129568
3.80235860915911
3.89107577854174
3.99736476521546
4.12800793692313
4.28801247870836
4.47672283198191
4.69453431810689
4.93952526953672
5.20893397042306
5.46282172444394
5.66837196870294
5.80819140327391
5.87624657877971
5.90786688884951
6.04947630837282
6.39171565769126
6.95696733509913
8.58353922478249
12.3582818238053
13.0845650255151
18.1952074662632
31.7828200361319
40.2032072435942
30.5408333735696
13.4284647277567
5.04380576659631
3.45208219055787
3.44831147895659
3.43848116138177
3.34609806383799
3.21819225945948
3.07846812381769
2.94639816369923
2.83196366374046
2.74233202123332
2.68081630899322
2.64335236328366
2.62248928873409
2.61218952440974
2.60669958189467
2.60169725289842
2.59819005541686
2.60495324952085
2.63647733996525
2.71694670194305
2.87973963087359
3.33195362803415
4.46624238260012
5.78661567138381
6.32843344938043
5.96556411052092
5.28284908852065
4.73720398877115
4.3954317367135
4.18817459694428
4.05935214658143
3.97667685956762
3.92123998986751
3.88189886347007
3.85207590116594
3.82787017038016
3.8069585060571
3.78794916980306
3.76999973752634
3.75259230335095
3.73539468566379
3.7181750677229
3.70081398786869
3.68329114591944
3.66563173658817
3.64788779848887
3.63012205487025
3.61240058312929
3.5947780761528
3.57728631638728
3.55994447245626
3.54277322638398
3.52578541701798
3.50899077325534
3.49239153447838
3.47598278125755
3.45975477847007
3.44368988944465
3.42776871894574
3.41196515350788
3.39625290862401
3.38060675553415
3.36499958814293
3.34940646967756
3.3338087353112
3.31819501866847
3.30255881415145
3.28689419206767
3.27119220869628
3.25544272224389
3.23963885232325
3.22379544452673
3.20799504397334
3.19241122442182
3.17728286265688
3.16293195305277
3.14976969873917
3.13836996398939
3.12947723574372
3.12415681172279
3.12380611323281
3.13049298450755
3.14703572610472
3.17755814128472
3.22670702174079
3.30862080596116
3.40035644469092
3.43087899377849
3.41307708103872
3.37986332438778
3.35444072591946
3.34477349858939
3.35387429776138
3.38057510555116
3.42414509341646
3.4837068491434
3.55824137023073
3.64749531763935
3.75720746725953
3.8927986205723
4.05406193119804
4.24337965909281
4.45965052783004
4.69264025876501
4.90251768055435
5.07044547583461
5.18697849913845
5.25057195206363
5.2904025344859
5.42827812550824
5.79001576334146
6.26063596106022
7.40459467213571
9.82793026184711
10.3667302786946
13.2948575180582
24.8678124474559
36.9825608640456
32.303515455789
15.8433066716399
5.84280783945165
3.25775099096117
3.10063147142296
3.090513896668
3.01449803734376
2.909017104499
2.79463429113205
2.68743546471226
2.59648510482429
2.5285161064308
2.4864630760328
2.46710404073242
2.46423018298966
2.47244082513766
2.48614271385588
2.50050760994521
2.51516280380851
2.53756696711321
2.58427066507976
2.68765074474968
2.9055519845801
3.48050910308226
4.65773427104958
5.72972027168302
5.94241509100908
5.44568924088631
4.81552747377609
4.35846489413239
4.0770910878294
3.90560940973063
3.79848236199535
3.729421132696
3.68283521261449
3.64948375404418
3.62389671000237
3.60283420007786
3.58437495897324
3.56737437077565
3.55114284644289
3.53525837847424
3.51945138004468
3.50353710936673
3.48742895810719
3.47111780320729
3.45463029627933
3.43801326883182
3.42132061216899
3.40460886513664
3.38792705809116
3.37130795415594
3.35477559559106
3.3383539981149
3.32205927544079
3.30590353201483
3.28989133331293
3.27401991714737
3.25828089616344
3.24265818030082
3.22713261387904
3.21167806491083
3.19626802832749
3.18087585006062
3.16547172174695
3.15002697063089
3.13451819770372
3.11892792782336
3.10324183494145
3.08744478752515
3.07151844877354
3.05544330587746
3.03920233749364
3.02280465384482
3.00633113184051
2.98993973145486
2.97383996935619
2.95831215237323
2.94371784178574
2.93055873427553
2.91949293141622
2.91145303606768
2.9076785293427
2.90998146387404
2.92085820994339
2.94394400151846
2.98355522450619
3.05192905655895
3.13153983477445
3.1643541524791
3.15676591162189
3.13361891825658
3.11409474542177
3.10581575629781
3.1132455372252
3.13480845475971
3.17110363975906
3.22262515546708
3.28804752368668
3.36679858853184
3.46343861062756
3.58156222829256
3.72302208474946
3.88807092137665
4.07615867279612
4.27072581136437
4.44544165155059
4.58750465644663
4.69113250636355
4.75723504958669
4.80929135011496
4.93403065941536
5.29518856605544
5.70272429332813
6.55777358163138
8.19670172097943
8.59816834496324
10.2606833716487
18.8634332960887
32.8695687938967
33.0858207154081
18.4383359784118
6.93246129236235
3.25641434380408
2.84667724903673
2.82017006446637
2.75388662959789
2.66380635617864
2.56821815338707
2.48024906465456
2.40783577862423
2.35709279137137
2.33064208996717
2.32598340871446
2.33805152149955
2.36217500035349
2.39309740929881
2.42568621703793
2.45841745055609
2.49766319664103
2.56197765188552
2.69255971204406
2.9750412165562
3.66163025905521
4.80567070532367
5.59005029268389
5.53926381835866
4.98352799535421
4.42446450005769
4.04472865871163
3.81291821786984
3.67110368761969
3.58232744621574
3.52500500765937
3.48619609777365
3.45819953631938
3.43645506482614
3.41827428504522
3.40207683489917
3.38693127995807
3.37228229997065
3.35779383176032
3.34325322933548
3.32851668470134
3.31352410422839
3.29827717303295
3.28280546437314
3.26715356373794
3.25137069645451
3.23550913170773
3.21961677584436
3.20372924982104