/*--------------------------------*- C++ -*----------------------------------*\
  =========                 |
  \\      /  F ield         | OpenFOAM: The Open Source CFD Toolbox
   \\    /   O peration     | Website:  https://openfoam.org
    \\  /    A nd           | Version:  7
     \\/     M anipulation  |
\*---------------------------------------------------------------------------*/
FoamFile
{
    version     2.0;
    format      ascii;
    class       volScalarField;
    location    "1000";
    object      p;
}
// * * * * * * * * * * * * * * * * * * * * * * * * * * * * * * * * * * * * * //

dimensions      [0 2 -2 0 0 0 0];

internalField   nonuniform List<scalar> 
15600
(
0.90727956778307
0.952088453315013
0.9711232238749
0.990826433277599
0.995481710136324
0.998980821274304
1.00119030702584
1.00343449961495
1.00449059905535
1.00521968509102
1.00549467627982
1.00570284437795
1.00591584548619
1.00623585857773
1.00668596917792
1.00719851775454
1.007632544875
1.00772562076423
1.00735252888716
1.00648079153372
1.00525065929395
1.00391974016253
1.00280562193952
1.00214019693574
1.00207565178012
1.00254977212511
1.00336190329608
1.00417262991308
1.00474498557282
1.00477908857791
1.00415688699556
1.00292134969468
1.00094017251274
0.997810810989978
0.993484649588459
0.988604079264038
0.983931004421846
0.979983607667398
0.976948481975338
0.974823247190442
0.973526659596461
0.97296868403813
0.973072563919753
0.973781949262129
0.975057804213329
0.976875151297513
0.979216735956187
0.982070894174679
0.985430409191412
0.989290211945337
0.993646384508805
0.998494428698023
1.00382891617769
1.00964259078694
1.01592687108478
1.02267141939788
1.02986488672347
1.03749284150484
1.04553889809252
1.05398426862059
1.06280748853571
1.07198535740567
1.08149128727409
1.0912971770967
1.10137170408133
1.11168154797341
1.12219119445161
1.13286297673647
1.14365753839679
1.15453403733347
1.16545061802151
1.17636487682196
1.1872343476348
1.19801722798597
1.2086732136342
1.21916419462851
1.22945563543694
1.2395165179457
1.24931954522104
1.25884036003321
1.26805964071683
1.27696044874523
1.28553374617466
1.29377069771777
1.30167521696998
1.30924646911304
1.31650397750804
1.32344807750421
1.33011907354906
1.33649798839278
1.34268040816303
1.34858237707628
1.35418958051942
1.36041050040144
1.3662504076925
1.37210062527021
1.3776187261479
1.3827844890357
1.38741718826467
1.39114634524238
1.39325220903859
1.39349368266574
1.39156068221379
1.38738725607142
1.38087900412515
1.37300403394513
1.36337044358262
1.35098091228074
1.33472760133347
1.31251019889728
1.28019690469011
1.22968132650526
1.15872808336123
1.064276650879
0.938567718937892
0.795352755162796
0.686126955077273
0.727311977865769
0.801880591848779
0.866835197802632
0.907259291858736
0.952033387724292
0.97101700131879
0.990660928003893
0.99539966413055
0.998901413928146
1.00111919641078
1.00338226666163
1.00447108691389
1.00521914185903
1.00550810317383
1.00571914477054
1.00592997533909
1.00624390357895
1.00668819199287
1.00719951868939
1.00764255773496
1.00775551601091
1.00740675325686
1.00655571470663
1.00533371033439
1.00399409699198
1.00285945547469
1.00217129559131
1.00209052061453
1.00255870323369
1.00337104753526
1.00418032884287
1.00474627554235
1.00477405121141
1.00414826671407
1.00291405693974
1.0009392678963
0.9978195499682
0.993500028143809
0.988619844557175
0.983943668305461
0.979993564517318
0.976957525185781
0.974832747427214
0.973537215178556
0.972980407654003
0.97308532475879
0.973795520871388
0.975071917046555
0.976889534573521
0.979231118486163
0.982084992416248
0.985443929307377
0.989302850456521
0.99365783633062
0.998504380472742
1.00383703826525
1.00964854306951
1.0159303358784
1.02267209323216
1.02986247859857
1.03748706869906
1.04552949248107
1.05397098736667
1.06279011041109
1.07196369787037
1.08146519247025
1.0912665364468
1.10133645231045
1.11164166549726
1.12214671473683
1.13281398781165
1.14360418474701
1.15447652115063
1.1653891978756
1.17629986791413
1.18716611721761
1.19794618885523
1.20859981497545
1.21908890681387
1.22937894244253
1.23943891580542
1.249241546925
1.25876248131309
1.2679824080377
1.27688436806384
1.28545932303752
1.29369838692677
1.30160548455872
1.30917973446119
1.31644067530429
1.32338849233515
1.33006343744813
1.33644614369184
1.34263282573225
1.34853679277177
1.35415285505662
1.36041869556919
1.36630742477331
1.37219843230277
1.37774320084878
1.3829197285689
1.38753878786883
1.39121555830213
1.39323489216488
1.39337078038695
1.39132318281295
1.38703725429671
1.3804452590647
1.37249716017892
1.36275189831748
1.35019781567893
1.33370124025242
1.31109500931243
1.27815014310295
1.22689983560264
1.15531057665968
1.06038678568894
0.934991693981521
0.793803316646859
0.687563021626978
0.728588787644609
0.802146707104783
0.866915060433944
0.907281559501802
0.952013067891309
0.970967296338439
0.990553264720563
0.995346974352412
0.998837813207208
1.0010561314565
1.00333387418918
1.00445180991412
1.00521763062196
1.00551974159228
1.00573387025292
1.00594286498995
1.00625106870204
1.00668936836395
1.00719792511999
1.00764662109249
1.00777516297999
1.00744668655642
1.00661320054588
1.0053976663578
1.00404856063184
1.00289348356049
1.00218404467246
1.00209079311515
1.00255894534487
1.00337788774907
1.00418965765148
1.00475141166856
1.0047737852885
1.00414844664761
1.00292586928298
1.00097292348199
0.997871812361259
0.993554736118941
0.988664491358134
0.983976551179429
0.980019482187331
0.976980620407195
0.974854883120865
0.973558746849414
0.973001089594446
0.973104724096374
0.973813199368547
0.97508745143419
0.976902574943014
0.97924136467256
0.982092138431331
0.985447665485879
0.989302864082533
0.993653825724593
0.998496010111048
1.00382395115091
1.00963045976741
1.01590706977624
1.0226434216117
1.02982817742378
1.03744689560285
1.04548322517399
1.05391847303965
1.06273122031284
1.07189836268702
1.08139338038298
1.09118828004266
1.10125184760459
1.11155087086939
1.12204996268947
1.13271158659678
1.14349652150383
1.15436406323624
1.16527248979705
1.17617953264322
1.18704284829799
1.19782073970762
1.20847298287279
1.21896150419266
1.22925178594596
1.23931282564269
1.24911736381746
1.25864104229874
1.26786456846435
1.27677094060971
1.2853511407622
1.29359627790305
1.3015103828111
1.30909235703753
1.31636171644535
1.32331835558423
1.33000287780928
1.33639513598143
1.34259200902241
1.34850514663674
1.35412781385759
1.36042268072226
1.36634002556495
1.37225749773007
1.37781445678272
1.38298727442425
1.38757692997414
1.3911886771356
1.39311796988542
1.39315559250627
1.39100931619534
1.38663523416203
1.37998278441758
1.37197026209249
1.36211386792614
1.34939662023682
1.33266087458497
1.30968284549938
1.27619285229815
1.22442285195569
1.15253957750391
1.05771917044717
0.93361987898369
0.795723314269577
0.692832579243502
0.73157584841522
0.802506763255963
0.867011423968978
0.907480390757335
0.952060603857593
0.970989841727896
0.990515577725697
0.995324381069521
0.998791145026492
1.00100004452271
1.00328862996133
1.00443367609951
1.00521613907776
1.00553077585683
1.00574770229457
1.00595431030591
1.00625547795032
1.00668508131693
1.00718601508714
1.00763347857685
1.00777038563678
1.00745646301995
1.00663743867421
1.00542900659062
1.00407386192855
1.00290271537219
1.00217588497811
1.00207374738244
1.00254767141848
1.00338180181774
1.00420379139142
1.00476637394345
1.00478717018125
1.00417287531707
1.00297698649562
1.001061221133
0.997981748421932
0.993654756430971
0.988742107328655
0.984039084477984
0.980076549739777
0.977035574262115
0.974907325097347
0.973607227318359
0.973044260699932
0.973141540722868
0.973842904295586
0.975109448547404
0.976916448902136
0.97924680356232
0.982088824208427
0.985435271723599
0.989281061160448
0.993622331952297
0.998454483075136
1.00377192221736
1.00956759458003
1.01583330191881
1.02255862743051
1.02973218708314
1.03733955920344
1.04536443492896
1.05378820997662
1.0625895144226
1.07174534352531
1.08122924507147
1.09101333278784
1.1010664981377
1.11135563366345
1.12184547136036
1.13249859591485
1.14327591253933
1.15413684376996
1.165039787132
1.17594259438355
1.18680302756549
1.19757947774382
1.20823177878069
1.21872186727146
1.22901521794502
1.23908082335462
1.24889144827844
1.25842272694623
1.26765538955621
1.276572432405
1.28516497637812
1.29342394750616
1.30135320359574
1.30895157778529
1.31623882896046
1.32321441337528
1.32991961222248
1.33633308581812
1.34255182112236
1.34848832843755
1.35412138438579
1.36042060447066
1.36632639591816
1.37224005930168
1.37778211214598
1.3829270297384
1.38746299093937
1.39098909906565
1.39281874219668
1.39275964928236
1.39052476944038
1.38608075204212
1.37938751652119
1.37131649145654
1.36134357335229
1.34845278577454
1.33146305665217
1.30810127588356
1.27409946863223
1.22194109665161
1.14998558897673
1.055644007842
0.933483482031617
0.799895601373829
0.701269645476616
0.736917762032006
0.803473055558075
0.867217765727234
0.907944983691225
0.952250603715919
0.971102416399901
0.990576399037905
0.995322817194976
0.998757613108219
1.00094667196612
1.00324380161442
1.00441589170357
1.00521460133675
1.00554154312243
1.00576069596969
1.00596324555473
1.00625395722082
1.00666906140089
1.00715349416915
1.00758857398567
1.00772326672787
1.00741663128143
1.0066099547317
1.00541270517722
1.0040607224618
1.00288479036582
1.00215085482485
1.00204682853474
1.00253190345223
1.00338836407329
1.00422786021906
1.00479814375181
1.00482719184026
1.00424232493554
1.0030900192288
1.00120787857218
0.998122240442428
0.993761435431322
0.988822154038595
0.984112322557702
0.980152258343273
0.977112431100535
0.974981100513242
0.973674104245219
0.973101554606111
0.973187480238245
0.973876357635655
0.975129634482642
0.976922900227287
0.979239222536717
0.982066920822488
0.985398756511124
0.989229653815816
0.993555738277351
0.998372407363981
1.00367413891478
1.00945396076366
1.01570379112735
1.02241317129247
1.02957074822763
1.03716213533397
1.04517108917682
1.05357910225924
1.06236486950352
1.07150551209253
1.0809746631225
1.090744571496
1.10078425823587
1.11106074792139
1.12153891925172
1.13218150287794
1.14294955906454
1.15380266528023
1.16469936249964
1.1755976473819
1.18645540527421
1.19723113172615
1.20788472422518
1.21837812262424
1.22867678961396
1.23874971566092
1.24856969499077
1.25811235574941
1.26735854136857
1.27629130809368
1.28490170977384
1.29318058978115
1.30113194622455
1.30875431873908
1.31606760007266
1.32307076059919
1.32980601475186
1.33625075036375
1.34250187032242
1.34847446816833
1.35412203170552
1.36040988973212
1.36627068760993
1.37215361408005
1.37765538847178
1.38274907499048
1.38720752418073
1.39062497614536
1.39233756021914
1.39217167770296
1.38984487322388
1.38533462853372
1.37860755230977
1.37047831482382
1.36038074584565
1.34730112065012
1.33003359432986
1.30625885364004
1.27173459126612
1.2192284286983
1.14728705036433
1.0535842295144
0.93364199999908
0.804835232803742
0.710992586441876
0.743906635313232
0.805560205274119
0.867762542289635
0.908614400257733
0.952597800876529
0.971291176665484
0.990755364751362
0.995359134522426
0.998732641593104
1.00089269510244
1.00319746251104
1.00439759223876
1.0052124364882
1.00555150994127
1.00577224404774
1.00596858394657
1.00624449759178
1.00663809381509
1.00709643210538
1.00750856424061
1.00763226903166
1.00732791018059
1.00653356038344
1.0053523921356
1.00401228573685
1.00284186410582
1.00211102554479
1.00201371963577
1.00251724845854
1.00340399964622
1.0042670366901
1.00485462184322
1.00490769643798
1.0043680239691
1.00325721291865
1.00137160453966
0.99823550439203
0.993823286565272
0.988866621564262
0.984167209604646
0.980222208063196
0.977190194632434
0.975058227267246
0.973744093719859
0.973160075790347
0.973231776195529
0.973904726700178
0.975140978477359
0.976916618257339
0.979214982512173
0.982024441556726
0.98533778709986
0.989149938040033
0.993457095193561
0.998254733415825
1.00353736748647
1.00929808203711
1.01552889561485
1.02221931559595
1.02935805485448
1.0369307634628
1.04492127103034
1.05331116904849
1.06207922132772
1.07120268678938
1.08065528702773
1.09040941888029
1.10043423842898
1.11069691271682
1.12116247803816
1.13179381564306
1.14255215066662
1.15339722543564
1.16428772993047
1.17518181288059
1.18603748300453
1.19681334235998
1.20746934645087
1.21796742387679
1.22827301898142
1.23835512025442
1.24818654048873
1.25774297481209
1.26700546581586
1.27595707095321
1.28458877504374
1.29289123174636
1.30086841869063
1.30851860025665
1.31586181239859
1.32289654149317
1.32966576315465
1.33614568983035
1.34243311453934
1.34844708409422
1.35411618588486
1.36039279351254
1.36619492252987
1.37203059436993
1.37747408376143
1.38249918367991
1.38686302852277
1.3901543125086
1.39173340876461
1.39144743530704
1.38901936930836
1.38443768814848
1.37767260572667
1.36947759111023
1.3592436822108
1.34595874644533
1.32839037332339
1.30417588233981
1.26911430614106
1.2162753215222
1.14439168963319
1.0514208233338
0.933856148743251
0.810012746668779
0.721157267965979
0.751695054925857
0.808687714595395
0.868672257332991
0.909448581695976
0.95306782875457
0.971516252879284
0.990976892550877
0.99546745559055
0.998712626258334
1.00083470500259
1.00314757552409
1.00437830736447
1.00520976148892
1.0055609604385
1.00578257759769
1.00597037367596
1.00622734188946
1.00659379123256
1.00701969771101
1.00740298318876
1.00751156207747
1.00720793160029
1.00642724511107
1.00526568473221
1.00394248930849
1.00278275088711
1.00205999997491
1.00197444928791
1.00250259024811
1.00342860888165
1.00432215547379
1.00493757092134
1.00502705591264
1.00453391864989
1.00344312601612
1.00151423269276
0.99829917709663
0.993832435240789
0.988873145339376
0.984200005663481
0.980280577169669
0.977262276519656
0.975132339092167
0.973811562252496
0.973215141067476
0.973270771452949
0.973925393580496
0.975141892323515
0.976897030444905
0.979174511702235
0.981962801159079
0.985254729366697
0.989045257448951
0.993330752347481
0.998106757291572
1.00336780535853
1.00910703012927
1.01531655431709
1.02198585983176
1.0291037412148
1.0366558815171
1.04462618524443
1.05299634452549
1.06174519271342
1.0708501354682
1.08028498282437
1.09002229041696
1.10003135114457
1.11027948252476
1.12073188811046
1.13135160121569
1.14210001916248
1.15293705702889
1.16382155705659
1.17471182523737
1.18556599105533
1.19634276314144
1.20700214757463
1.21750604478333
1.22781987379681
1.23791261191984
1.24775713459865
1.25732933094088
1.26661043781158
1.27558332805178
1.28423880365428
1.29256730732807
1.30057275948821
1.30825314256711
1.31562857592549
1.32269704435811
1.32950188577636
1.33601820713648
1.34234264708252
1.34839933646489
1.35409558679582
1.36036482498579
1.3661048991871
1.37188407410163
1.37725700252192
1.38220125299228
1.38645899352677
1.3896122539237
1.39104598535087
1.39062925715167
1.38809141116102
1.38343166376404
1.37662076525811
1.36834851817733
1.35796436449234
1.34445713751406
1.32656646598391
1.30189031956082
1.26628318384985
1.21312884008805
1.14134685413551
1.04919778657661
0.934151840712641
0.815366660191807
0.731545498244299
0.759855535978827
0.812503255500441
0.869865693152084
0.910456800203115
0.953661511588878
0.971793593957298
0.991150622097244
0.995637548741811
0.998703270354735
1.00077102870612
1.00309271131388
1.00435827483177
1.00520747784591
1.00557073067766
1.00579225676452
1.00596935489857
1.00620431344062
1.0065402127374
1.00693048125531
1.00728226716665
1.00737413805826
1.00707116224472
1.00630569545899
1.00516620537666
1.00386254665142
1.00271548779761
1.00200226453432
1.00193021132347
1.00248618408051
1.00345838274718
1.0043892365645
1.00504139564301
1.00517236790383
1.00471837613283
1.00362377947962
1.00162132067103
0.998309902943216
0.993792323390717
0.98884575765499
0.984211890251726
0.980326423246509
0.977326785725795
0.975201332071336
0.973874581769401
0.97326518105927
0.973303333488703
0.973937689686283
0.975132175366711
0.97686440133115
0.979118533008754
0.981883153714045
0.985151149265282
0.988917608582485
0.993179113287494
0.997931253569649
1.00316858064138
1.00888427161451
1.01507055953203
1.02171690543167
1.02881219780056
1.03634214667994
1.04429073373715
1.05263975377708
1.06136810973706
1.0704533630618
1.07986941149082
1.08958898115762
1.09958150269226
1.10981445169891
1.12025320953653
1.13086096216124
1.14159928590133
1.15242827629533
1.16330693052158
1.17419371668531
1.18504688151917
1.19582523978174
1.20648883999777
1.21699953593022
1.22732271087036
1.23742732821936
1.24728648808956
1.25687635335421
1.26617812249259
1.27517434499078
1.2838556502109
1.29221226925455
1.30024802398506
1.30796057780974
1.31537004014742
1.3224738691167
1.32931530935812
1.3358684748742
1.34222971474269
1.34832892728203
1.35405506848063
1.3603191886732
1.36599731953609
1.37171483248721
1.37700865595235
1.38186317171744
1.38600666417305
1.3890133347775
1.39029300628964
1.38973746240731
1.38708315375999
1.38233950561349
1.37547480811865
1.36711331665315
1.35656501633714
1.34281936758909
1.32458731424164
1.29943294760468
1.26327970982695
1.20983349046703
1.13820117839426
1.0469703292343
0.934582329251114
0.820926108102035
0.742088455065001
0.768227242473385
0.816770542344829
0.871438581762633
0.911646067169742
0.954377372303077
0.972206779307949
0.991277562918274
0.995771277981149
0.998712366918315
1.00070339009882
1.00303246444182
1.00433813496621
1.00520669342713
1.00558172218845
1.00580203501496
1.00596675511036
1.0061776605244
1.00648105489977
1.0068340916324
1.00715320791855
1.00722789875785
1.00692610520872
1.00617743726151
1.00506214683321
1.00377956892581
1.0026457074719
1.00194170800108
1.00188314251566
1.00246807413661
1.00349053390213
1.00446390426398
1.00515901051197
1.00533176997174
1.00490686596512
1.00378555511439
1.00168381162603
0.998263939527442
0.993704582364898
0.988786216090304
0.984202867757342
0.980358643653195
0.977382171127451
0.975263612417267
0.973931731448546
0.973309046546042
0.973328624107884
0.973941098380379
0.975111630743368
0.976818851379567
0.979047478519737
0.981786203562211
0.985028027882934
0.988768268786957
0.993003724782645
0.99773002913989
1.00294175024783
1.00863210889896
1.01479345577415
1.02141522998682
1.02848642586885
1.03599277285191
1.04391833260115
1.05224500475983
1.06095176076925
1.07001632716226
1.07941268696708
1.08911374898896
1.09908908071724
1.10930632218283
1.11973104287334
1.13032658006437
1.14105469426899
1.15187566776188
1.16274865356998
1.17363228505391
1.18448492064249
1.19526547909323
1.20593404156214
1.21645239423129
1.22678586165089
1.23690349835422
1.24677875312005
1.2563880054296
1.26571218111835
1.27473346081394
1.28344233229193
1.29182879520825
1.29989652021862
1.30764281725571
1.31508768200783
1.32222802317655
1.32910652968799
1.33569649803123
1.34209375992602
1.34823421740793
1.35399070250968
1.36025009660946
1.36586785594269
1.37152103509185
1.37673003949086
1.38148861276708
1.38551227273685
1.38836588003822
1.38948475319684
1.38878410105151
1.38600795161724
1.38117518878235
1.37424886801351
1.36578634715241
1.35506068961756
1.34106187328035
1.32247208591563
1.29682737055922
1.26012877825271
1.20641664881248
1.13498933943038
1.04483879620143
0.935278754858381
0.826700473847758
0.752751110534629
0.776758091565292
0.821397302907788
0.873482221351121
0.913062444762971
0.955199239194531
0.972830608385343
0.99144443394796
0.995749105073392
0.998735550843811
1.00063757328937
1.00296707428628
1.00431844853514
1.0052084401045
1.00559490252461
1.00581287414002
1.00596390893225
1.00614930884914
1.00641901643386
1.00673411431504
1.00702028798103
1.00707808926914
1.00677849925593
1.00604838148675
1.00495931982567
1.00369889222299
1.00257794658804
1.00188180591596
1.00183559452159
1.00244915252895
1.00352376465624
1.00454374681423
1.00528412166886
1.00549716763217
1.00508842391014
1.00391650935532
1.00169281559512
0.998159379837743
0.993572124073296
0.988696358630805
0.984173053853033
0.980376374254955
0.977427166312358
0.975317862035366
0.973981828371991
0.973345776489235
0.973345940416695
0.973935186126969
0.975080094559267
0.976760486903807
0.978961710197941
0.98167254412737
0.984886204431993
0.988598329871079
0.99280591854081
0.997504649099779
1.00268910557236
1.0083525574117
1.01448748104282
1.0210832876665
1.02812908978486
1.03561062702426
1.04351204423097
1.05181534803199
1.06049957620222
1.06954262979824
1.0789185728637
1.08860050948065
1.09855814136576
1.10875927766171
1.11916968597788
1.12975285143499
1.14047072208901
1.1512837716391
1.16215130792527
1.17303213076838
1.18388470254423
1.19466804200461
1.20534225108398
1.21586902352804
1.22621360991077
1.23634533707479
1.246238111368
1.25586824804389
1.26521626046657
1.27426403577772
1.28300189843382
1.29141959193226
1.29952057965818
1.30730179043824
1.31478299627937
1.32196053643026
1.3288760861889
1.33550237237621
1.34193440884094
1.34811396093347
1.35389951958611
1.3601529683922
1.36571252713633
1.37130015695862
1.3764208451467
1.38107961428682
1.38498009850122
1.38767524944673
1.38862774370045
1.38777738850801
1.3848756086747
1.37994921943852
1.37295384925222
1.36437892089575
1.35346361441884
1.33919816439743
1.32023607738729
1.2940872877336
1.25684866541696
1.20296376999485
1.13193885858327
1.04312354617098
0.936566316063298
0.832812671933174
0.763518502417677
0.785428467651957
0.826317538952471
0.875899470314678
0.914698493550024
0.956124447338024
0.973674680287446
0.991752488157681
0.995589176691255
0.998762778109978
1.00058308278482
1.00289736702966
1.00429947324345
1.00521360388303
1.00561127578006
1.00582578651064
1.00596202368409
1.00612079168316
1.00635611152694
1.00663318519117
1.00688681614178
1.00692861983052
1.00663267012752
1.00592303810371
1.00486226154959
1.00362494055557
1.00251626348401
1.00182594214404
1.00179010437892
1.002430696242
1.00355768260336
1.00462716527637
1.00541191402301
1.00566151791689
1.00525251891146
1.00400546175806
1.00164185496723
0.997998074044924
0.993399178159476
0.988578355493097
0.984122893693991
0.980379105449277
0.977460844162906
0.97536306223948
0.974023940401772
0.973374611988697
0.973354736597949
0.973919635397131
0.975037481331169
0.976689458680419
0.978861587633549
0.981542741132639
0.984726473732453
0.988408804388702
0.992586920729805
0.997256547741985
1.00241228377913
1.0080474552034
1.01415467221937
1.02072330807147
1.02774260706858
1.03519830845064
1.04307464352867
1.05135372819671
1.06001466310809
1.06903553396748
1.0783904794076
1.08805281213255
1.09799236367236
1.10817711543439
1.11857304297765
1.12914377377104
1.13985144511533
1.15065672542088
1.16151907456254
1.17239745816666
1.18325043283413
1.1940371116255
1.20471760308684
1.21525347298669
1.22560997131884
1.23575683246628
1.2456684116911
1.25532070366004
1.26469374556106
1.27376919653764
1.28253718925615
1.29098718737934
1.2991223900258
1.3069393220005
1.31445741644596
1.32167242463685
1.32862456670427
1.33528631458351
1.34175152248119
1.34796737612603
1.35377940278946
1.36002421812819
1.36552776979376
1.37104931493079
1.37607983085418
1.38063701589338
1.38441216524633
1.38694353885844
1.38772437879757
1.38672024731305
1.3836907112432
1.37866804622507
1.37159807679664
1.36290015910756
1.35178370884587
1.33723738158314
1.31788639487308
1.29122587847896
1.25357377779851
1.19971843556639
1.12935977914583
1.04203290066351
0.938544278512258
0.839475106658166
0.774357282017296
0.794206434296347
0.83145099576057
0.878597526466527
0.916448355112754
0.957177141065075
0.974691212688403
0.992276330857275
0.995410276062726
0.99879095185431
1.0005471682784
1.00282560883074
1.00428120571261
1.0052229163368
1.00563183553933
1.00584175819855
1.00596216887406
1.00609336698096
1.00629391447486
1.00653331596785
1.00675528135592
1.00678241033394
1.00649184451281
1.00580480814155
1.00477445640415
1.00356139918076
1.0024643730856
1.00177752354978
1.00174948756373
1.00241440190947
1.00359276388983
1.00471152229764
1.00553445794022
1.00581104834882
1.00538871153555
1.00404290771316
1.00152792117994
0.997784417367721
0.993190115724476
0.988434316223349
0.984052958491558
0.980366543217855
0.977482510179086
0.97539840757461
0.974057315937336
0.973394939818786
0.973354580046379
0.973894212671243
0.974983763378144
0.976605953226335
0.978747477572449
0.98139734533557
0.984549602546245
0.988200658098256
0.99234789314097
0.996987078749008
1.00211282582424
1.00771852837825
1.01379693824358
1.02033737696185
1.02732923640792
1.03475824324224
1.04260871868854
1.05086289041409
1.05949991729425
1.06849808055359
1.07783158480559
1.08747396566318
1.09739517844721
1.10756337831003
1.11794475866631
1.1285030817292
1.13920067416854
1.14999840118491
1.16085587029877
1.1717322105579
1.1825860612888
1.1933766228544
1.20406399346567
1.21460955942387
1.22497873911198
1.23514180572443
1.24507332263517
1.25474879663592
1.26414784877509
1.27325191765277
1.28205091614691
1.29053400530725
1.29870406216625
1.30655718896001
1.31411236048493
1.32136472220885
1.32835262734518
1.33504864948137
1.34154514562929
1.34779404043012
1.35362892890046
1.35986118274773
1.36531062772999
1.37076571077269
1.37570536085053
1.38016125550876
1.38380974152678
1.3861796401454
1.38678856854174
1.38561982536736
1.38245472674329
1.37733318982664
1.3701832379375
1.36135307521389
1.35002370625491
1.33518376551528
1.31543984393565
1.28838076487854
1.2505175893632
1.19681373423323
1.12711212430152
1.04126969469271
0.940867394393819
0.846556636767713
0.785191839450431
0.803069123607024
0.836761905878739
0.881539084135803
0.918320412128587
0.958271339533405
0.975826077455013
0.99304167781358
0.995323565998386
0.998771098723918
1.00052459836557
1.00275691395553
1.00426359479109
1.00523696100248
1.00565755736194
1.00586175723622
1.00596532519945
1.00606810578124
1.00623367918367
1.00643603824796
1.00662752298205
1.00664158333451
1.00635835456485
1.00569618748987
1.00469856190362
1.00351133224106
1.00242564328885
1.00174003838613
1.00171688372037
1.00240246819451
1.00363041902044
1.00479513061556
1.00563218274133
1.00593811041346
1.00548520792719
1.00402163476714
1.0013514844859
0.997524036086085
0.992949062064284
0.988266259032939
0.983963916090281
0.980338568318529
0.977491658102866
0.975423263404706
0.974081346251042
0.97340626071492
0.973345126273235
0.973858750202448
0.974918959597799
0.976510182984765
0.9786197576531
0.981236910351265
0.984356348911871
0.987974836504766
0.992089967066347
0.996697555875925
1.00179222318706
1.00736744381113
1.01341611918029
1.01992750168446
1.02689114920224
1.03429276190729
1.04211675440065
1.0503454689824
1.05895811666616
1.0679331862061
1.07724493709856
1.08686714334022
1.09676987630538
1.10692146468977
1.11728833001997
1.12783435951479
1.13852206785768
1.14931251813343
1.16016545969614
1.17104018101678
1.18189539111079
1.19269036978274
1.2033851847651
1.2139410230187
1.22432363095216
1.2345039228394
1.24445636197375
1.25415584956748
1.26358169567519
1.27271510377164
1.2815457387884
1.29006243691889
1.29826769454522
1.30615717692775
1.31374927769222
1.32103851855546
1.32806101590303
1.33478980212322
1.34131547065143
1.34759380682833
1.35344724143003
1.35966206507988
1.36505887703024
1.37044696252583
1.37529591904659
1.37965298771086
1.38318446239141
1.38541245674069
1.38586608120766
1.38453422598765
1.38121898302058
1.37597172691024
1.36870969190694
1.35973865903363
1.34818861325175
1.33309161224041
1.31303032781096
1.28573280974012
1.24765028079858
1.19404302200277
1.12493291766265
1.040600321938
0.943322906292756
0.853705854235076
0.795987615819153
0.811997724272074
0.842240625136552
0.884673274716993
0.920353720943289
0.959249982008152
0.977086246460957
0.994014729874877
0.99541893754485
0.998615001278234
1.00050700510465
1.00270022841581
1.0042469924171
1.00525618288499
1.00568940567418
1.00588676135261
1.00597242945346
1.00604595326397
1.00617642052796
1.00634251090698
1.0065048686438
1.00650762759321
1.00623381454664
1.00559893163892
1.00463656954529
1.00347725223207
1.0024030603119
1.00171704140735
1.00169578094931
1.00239774598554
1.00367207096851
1.00487403221413
1.00569737830538
1.00604911094156
1.00553436635368
1.00393757615745
1.00111613746259
0.997223006563841
0.99267991418725
0.988076200374102
0.983856575036984
0.98029525481086
0.977487975902592
0.975437166287275
0.974095563534032
0.973408186757072
0.973326116693079
0.973813144993993
0.974843136012034
0.976402381844691
0.978478822489395
0.981062010167358
0.98414747381555
0.987732279063678
0.991814259970794
0.996389271636226
1.00145193811046
1.00699583082723
1.01301400936997
1.01949563550266
1.02643045479569
1.03380412492526
1.04160115738571
1.049804012461
1.05839194575849
1.06734366680789
1.07663347626917
1.08623540349554
1.09611962652219
1.1062546455481
1.11660712123523
1.12714105378521
1.13781914314543
1.14860265069421
1.15945146059512
1.17032501534252
1.18118207936813
1.19198200343689
1.20268479782264
1.2132514973814
1.22364829030143
1.23384672157138
1.24382090140968
1.25354507286021
1.26299831476776
1.27216157977615
1.28102425594462
1.28957483285534
1.29781536701686
1.30574107568635
1.31336964612584
1.32069495753562
1.32775057134292
1.33451028232413
1.34106282657443
1.34736676681555
1.35323396057675
1.35942585720949
1.36477104603978
1.37009127616955
1.37485019253933
1.37910796773827
1.38254476725656
1.38465298420216
1.38497396281603
1.38351255190537
1.38006264432283
1.37467479656416
1.36727116295755
1.35814455426748
1.34638812501786
1.33108491281795
1.31079927617674
1.28319439860856
1.24479134796862
1.19125008520049
1.12279878421741
1.04005940032054
0.94593914244295
0.860817610639973
0.806741174766038
0.820917139339013
0.847875793067388
0.887969653530092
0.922523044857879
0.960135308003336
0.978448177318618
0.995117593859115
0.995746932373117
0.998345576845996
1.00049780489591
1.00266573489703
1.00423299289012
1.00528092678656
1.00572833365435
1.00591778201186
1.00598441216
1.00602777850801
1.00612297929316
1.00625360306294
1.00638823698454
1.00638151680948
1.00611924691164
1.0055141734265
1.00458990249636
1.00346117879001
1.00239952784752
1.00171185433758
1.00168996741904
1.00240412262654
1.00372289539652
1.00493472256403