/*--------------------------------*- C++ -*----------------------------------*\
  =========                 |
  \\      /  F ield         | OpenFOAM: The Open Source CFD Toolbox
   \\    /   O peration     | Website:  https://openfoam.org
    \\  /    A nd           | Version:  7
     \\/     M anipulation  |
\*---------------------------------------------------------------------------*/
FoamFile
{
    version     2.0;
    format      ascii;
    class       surfaceScalarField;
    location    "1000";
    object      phi;
}
// * * * * * * * * * * * * * * * * * * * * * * * * * * * * * * * * * * * * * //

dimensions      [0 3 -1 0 0 0 0];

internalField   nonuniform List<scalar> 
30950
(
-3.19256634190333e-05
-6.54747721200204e-06
-1.96927622505365e-05
-1.22333366131854e-05
-2.16540906013228e-05
1.96156654634077e-06
-1.70255336935663e-05
-4.62906711586794e-06
-1.27622198557618e-05
-4.26326570871271e-06
-9.8986554448803e-06
-2.86346631594672e-06
-7.96428889302412e-06
-1.93436505623301e-06
-6.18332475396597e-06
-1.78093396793719e-06
-5.33827028159247e-06
-8.45105169751645e-07
-5.10242822090554e-06
-2.35831903243394e-07
-5.55426091840973e-06
4.51835371941408e-07
-6.47782139615198e-06
9.23574164182744e-07
-7.56525474095457e-06
1.08740161103993e-06
-8.4229131419817e-06
8.57685495630488e-07
-8.51085167384644e-06
8.7933348666691e-08
-7.2691117221755e-06
-1.24173751834102e-06
-4.26049688626115e-06
-3.00863584714476e-06
3.50751560516936e-07
-4.61122690682106e-06
6.15708374957794e-06
-5.80634996476689e-06
1.23713779867923e-05
-6.21427586059531e-06
1.7933182391545e-05
-5.56180576315023e-06
2.16374204720851e-05
-3.70423649873061e-06
2.24977699552252e-05
-8.60352571219677e-07
2.00095582657778e-05
2.48821225096853e-06
1.49168204275468e-05
5.09273811872702e-06
9.22494676273359e-06
5.69187734917273e-06
5.87355766479535e-06
3.3513801071323e-06
6.59641277702203e-06
-7.22846187131951e-07
1.11368434402556e-05
-4.54043635262877e-06
1.68370071687259e-05
-5.70015162880884e-06
2.10317590687114e-05
-4.19475299892288e-06
2.20171262356888e-05
-9.85368552382224e-07
1.79035995928292e-05
4.11352040981472e-06
6.44593758540697e-06
1.14576529902543e-05
-1.23481039858169e-05
1.87940226184045e-05
-3.49295875704406e-05
2.25814964768174e-05
-5.73511363149117e-05
2.24215448191914e-05
-7.7306081482689e-05
1.99549671664406e-05
-9.41376137890827e-05
1.68315155328301e-05
-0.000108058497253082
1.39208905940658e-05
-0.000119582860939243
1.1524353447268e-05
-0.000129226966013296
9.64411631578421e-06
-0.000137415107008134
8.18812923872945e-06
-0.000144462980532603
7.04787587371149e-06
-0.00015059570626516
6.13272315742706e-06
-0.00015596519512347
5.36949477768051e-06
-0.000160678873215089
4.71367619388171e-06
-0.00016481538282315
4.13651255963147e-06
-0.000168428847300377
3.613461628563e-06
-0.000171556161649498
3.12731101708117e-06
-0.000174221671707936
2.66550625558452e-06
-0.000176442621695454
2.22094267143455e-06
-0.000178225606714116
1.78296576082704e-06
-0.000179566609516999
1.34099083541863e-06
-0.000180459140329561
8.92503658681331e-07
-0.000180902635992662
4.43493633840851e-07
-0.000180895729518123
-6.95511141547941e-09
-0.000180438161954842
-4.57563590413e-07
-0.000179526893516589
-9.11294396043672e-07
-0.000178158552801784
-1.36830497554974e-06
-0.000176331813620746
-1.82677184749469e-06
-0.000174043653516605
-2.2881334079947e-06
-0.000171295058181769
-2.74859523382678e-06
-0.000168086048116441
-3.20896688198964e-06
-0.000164420525528392
-3.6655082489756e-06
-0.000160305099164222
-4.11540536667015e-06
-0.000155748859612823
-4.55622512745526e-06
-0.000150765210240543
-4.98364748400198e-06
-0.000145371822543656
-5.39337845482907e-06
-0.000139591265860575
-5.78056266250617e-06
-0.000133451518421673
-6.13973955918577e-06
-0.000126986158541352
-6.46536622422303e-06
-0.000120235449518409
-6.75069910080949e-06
-0.000113246408344086
-6.98904392905173e-06
-0.000106072229282769
-7.17417277080475e-06
-9.87717728124448e-05
-7.30045847313605e-06
-9.1405242955135e-05
-7.36652849610207e-06
-8.40341650375938e-05
-7.37108468967578e-06
-7.67219282955602e-05
-7.31223336539686e-06
-6.95402339472148e-05
-7.18170458196706e-06
-6.25620256762823e-05
-6.97820281566075e-06
-5.58759247086923e-05
-6.68610461407116e-06
-4.9566827233302e-05
-6.30910182592584e-06
-4.37483990621547e-05
-5.81842665190333e-06
-3.85207100431345e-05
-5.22769120951773e-06
-3.40312523997178e-05
-4.48945478943871e-06
-3.03811028784985e-05
-3.65014444444658e-06
-2.77618738706446e-05
-2.6192280586125e-06
-2.62193972101512e-05
-1.54247277197737e-06
-2.6026997364199e-05
-1.9240349410913e-07
-2.70047099766899e-05
9.77717004904884e-07
-2.97311988601226e-05
2.72649200847416e-06
-3.20868706675364e-05
2.35567920522425e-06
-2.71709669853833e-05
-4.91590576158142e-06
-2.03665577239063e-05
-6.80440312911686e-06
-1.17058590244855e-05
-8.66069949654021e-06
-2.18490482806397e-06
-9.52095128177661e-06
8.17527528287378e-06
-1.0360178427835e-05
1.9928823383279e-05
-1.17535460842388e-05
3.30382887252402e-05
-1.31094638545285e-05
4.58486987428295e-05
-1.28104095468095e-05
5.78877232720108e-05
-1.20390237146555e-05
6.86954541426649e-05
-1.08077376291418e-05
7.77743966058107e-05
-9.0789320651599e-06
8.38165460662389e-05
-6.04214509856446e-06
8.86001694779785e-05
-4.7836216567775e-06
9.33981344603155e-05
-4.79796045218845e-06
9.87345389731596e-05
-5.33642047876315e-06
0.000105685883965393
-6.95131973887761e-06
0.000116539285747442
-1.08533938823298e-05
0.00013357113477492
-1.70318415140928e-05
0.000154088822179204
-2.05176744977689e-05
0.000179809709779422
-2.57208830939254e-05
0.000213662029536597
-3.38523151613582e-05
0.000245328297706319
-3.16662541591063e-05
0.000234107316790975
1.12209947452741e-05
0.00013525426180509
9.88530368754709e-05
3.33488627200167e-05
0.000101905611354891
-2.84956140966918e-05
6.18458125423239e-05
9.97682534289953e-06
-3.57600326209871e-05
-1.63285729205127e-05
-2.20712597178824e-05
-2.59225117672673e-05
-4.08541680318241e-05
2.07446888945276e-05
-4.31096876202388e-05
-2.37419028135816e-06
-3.59626002033525e-05
-1.14102145037883e-05
-2.8595231405242e-05
-1.02307309313016e-05
-2.31091977151054e-05
-7.4203927218848e-06
-1.87101294780902e-05
-6.17995710125956e-06
-1.66785069616518e-05
-2.87679657360266e-06
-1.64988442715728e-05
-4.15483881289063e-07
-1.80992655269974e-05
2.05226350037421e-06
-2.09454233234096e-05
3.76975102460855e-06
-2.40945124577374e-05
4.23645432088923e-06
-2.64600860260841e-05
3.22328826411447e-06
-2.66945860634282e-05
3.22427461800438e-07
-2.35195566021367e-05
-4.41676423721866e-06
-1.60882308676649e-05
-1.04399820811547e-05
-4.76704231353274e-06
-1.59323950288301e-05
9.58046461552311e-06
-2.01538734093323e-05
2.54067263260047e-05
-2.20405207520401e-05
4.05442239775654e-05
-2.06993045870401e-05
5.23148241770565e-05
-1.54748352622259e-05
5.80012032843562e-05
-6.5467342858535e-06
5.55046117792117e-05
4.98480441693484e-06
4.51640540137725e-05
1.54332962035457e-05
3.10010079343209e-05
1.98549269890997e-05
2.06786435845402e-05
1.36737354475065e-05
1.9791714921459e-05
1.6409176770766e-07
2.74166313248879e-05
-1.21653586558821e-05
3.67984935133969e-05
-1.50820024045991e-05
4.09875043117942e-05
-8.38376479846096e-06
3.28279067218206e-05
7.17422779555346e-06
4.58946878133481e-06
3.23519531728189e-05
-4.64294340910894e-05
6.24765490981369e-05
-0.00011213148115402
8.44960565924444e-05
-0.000178488065866237
8.89380899555008e-05
-0.000236190425988984
8.01239026037298e-05
-0.000282724693196851
6.6489247962331e-05
-0.000319290784930472
5.33975975555344e-05
-0.00034802014698446
4.26502571867956e-05
-0.000370842740958238
3.43469417098844e-05
-0.00038922205283422
2.80234349152407e-05
-0.000404196706143495
2.31627759841337e-05
-0.000416482051064659
1.93332225576613e-05
-0.000426566901355929
1.62175722867779e-05
-0.000434784110886434
1.35867083183785e-05
-0.00044136892436487
1.12984890563882e-05
-0.000446491346012925
9.25893646698027e-06
-0.000450271292194795
7.39340695488658e-06
-0.000452793975795135
5.64999372756229e-06
-0.000454121577765607
3.99310708734212e-06
-0.000454303891246246
2.40325311962639e-06
-0.00045337345350674
8.52519233650351e-07
-0.000451341353565519
-6.91114057657022e-07
-0.000448215267545714
-2.23359563399711e-06
-0.000444013041611207
-3.75873176063529e-06
-0.000438750556535601
-5.2694651612835e-06
-0.000432446839326351
-6.76127743780898e-06
-0.000425119887157018
-8.23826001333981e-06
-0.000416785139486903
-9.70303291485162e-06
-0.000407461063483452
-1.11508655414918e-05
-0.000397166667932132
-1.25825146639139e-05
-0.000385926475925957
-1.3988787942524e-05
-0.000373766994632645
-1.53684257097631e-05
-0.000360721160865034
-1.67113353443326e-05
-0.000346827410862179
-1.8009144889074e-05
-0.00033212973904831
-1.92538897964261e-05
-0.000316679801352375
-2.04335847386623e-05
-0.000300536998663116
-2.15361764229797e-05
-0.00028376908529522
-2.254847974594e-05
-0.000266452763818569
-2.34560568419971e-05
-0.000248674050363358
-2.42440837271722e-05
-0.000230529212263822
-2.48955314261751e-05
-0.000212124404474219
-2.53938534058568e-05
-0.000193574254610653
-2.57243189477141e-05
-0.000175000277834479
-2.58744366079512e-05
-0.000156527131993537
-2.58396736184014e-05
-0.000138284394287188
-2.56138268085196e-05
-0.000120409894839402
-2.51867308807264e-05
-0.000103056624336219
-2.45349819016754e-05
-8.63895414563491e-05
-2.36452816234272e-05
-7.05992494811436e-05
-2.24763986785493e-05
-5.5891803460928e-05
-2.10165502248214e-05
-4.25154228711764e-05
-1.91948063939821e-05
-3.0742326384292e-05
-1.70007892836904e-05
-2.09127619684454e-05
-1.43190183815312e-05
-1.3375679343659e-05
-1.11872235740595e-05
-8.58228758854934e-06
-7.41261981932697e-06
-6.8677532012173e-06
-3.25700473955835e-06
-8.76855326046428e-06
1.70839274238961e-06
-1.45513652495751e-05
6.76053154542354e-06
-2.44226743415874e-05
1.25978028853603e-05
-2.90785577302175e-05
7.01156794164519e-06
-1.72831071664105e-05
-1.67113587281804e-05
-7.66709648266832e-07
-2.33207964609996e-05
1.89502174430867e-05
-2.83776279298339e-05
4.02066260283156e-05
-3.07773582598764e-05
6.29924315067433e-05
-3.31459832297202e-05
8.82226953552248e-05
-3.69838089693618e-05
0.000115583762984811
-4.04705309593446e-05
0.000142644089213797
-3.98707359374708e-05
0.00016845714667793
-3.78520811305743e-05
0.000192245218361854
-3.45958147757355e-05
0.000212936918975527
-2.97706271954364e-05
0.000228400312372011
-2.15055355833416e-05
0.000240574214376985
-1.69575235612801e-05
0.00025153633851097
-1.57600821561476e-05
0.000262773207985744
-1.65733030677766e-05
0.000276465656847291
-2.06437516507777e-05
0.000296911386611075
-3.12991177489154e-05
0.000328647642885424
-4.87680936896245e-05
0.00036967789847484
-6.15479218848904e-05
0.00042294161845436
-7.89846006725933e-05
0.000492846380298541
-0.000103757077853133
0.000568360959210719
-0.000107180826440216
0.000585984786924763
-6.40282162272404e-06
0.000445936245165551
0.000238901543814002
0.000211177164850455
0.000336664848583118
1.34632920597529e-05
0.000259560735585618
6.89806165124126e-05
1.96095662049265e-05
-9.70821411432454e-06
1.68175201917392e-05
-2.31307407756763e-05
-3.28106643646979e-05
7.03730253763735e-05
-5.96781022850591e-05
2.44927597768573e-05
-5.7594871799522e-05
-1.34933438922734e-05
-4.70737590716072e-05
-2.07517476067444e-05
-3.84769868324772e-05
-1.60171599107437e-05
-3.20805856780623e-05
-1.25763188675373e-05
-2.9240289760737e-05
-5.71715200105969e-06
-2.94453354555394e-05
-2.10430512940163e-07
-3.23856832072937e-05
4.9926150702018e-06
-3.71927638611301e-05
8.57684653666602e-06
-4.22716650689838e-05
9.31532414471761e-06
-4.58983855865597e-05
6.85003197358836e-06
-4.61388368764512e-05
5.62873680220628e-07
-4.13469401370708e-05
-9.20865922994573e-06
-3.06584964104121e-05
-2.11284406071888e-05
-1.46832101859061e-05
-3.190766758001e-05
5.42892396478507e-06
-4.02660184483178e-05
2.78744359313412e-05
-4.44860219609624e-05
5.01573087225677e-05
-4.29821781513562e-05
6.91389968744762e-05
-3.4456522528185e-05
8.12678151264979e-05
-1.86755542524517e-05
8.30052273961642e-05
3.24739260269712e-06
7.29057685280191e-05
2.5532755354506e-05
5.4480548502502e-05
3.82801497359676e-05
3.80217753293348e-05
3.01325018245566e-05
3.26814228732151e-05
5.50445179793369e-06
3.70386013392617e-05
-1.65225415969334e-05
4.13329359086108e-05
-1.93763287258742e-05
3.49492549137038e-05
-2.0000845567908e-06
4.28570557858499e-06
3.78377762075959e-05
-6.01299516587665e-05
9.67676071806018e-05
-0.000150064039552844
0.000152410633236657
-0.000244449717140528
0.000178881727235116
-0.000326512262081265
0.000171000639002977
-0.00039085779643899
0.000144469435512754
-0.000439469304193586
0.000115100762187626
-0.000476147529822357
9.00758180735226e-05
-0.000504150858240489
7.0653587538685e-05
-0.000525821924079675
5.60180044104951e-05
-0.00054275472647752
4.49562403045913e-05
-0.000556017652766293
3.64256986911761e-05
-0.000566326670077923
2.96422403598094e-05
-0.000574166212478732
2.40571136850834e-05
-0.000579868938768046
1.92894361155344e-05
-0.000583672171697928
1.51017211555862e-05
-0.000585748368494708
1.13351337813591e-05
-0.00058622134904245
7.86638642785389e-06
-0.000585181228811389
4.60987232156486e-06
-0.000582694092515817
1.50596940166269e-06
-0.000578812824979657
-1.47801680224439e-06
-0.000573585901515122
-4.37440942270157e-06
-0.000567054328090728
-7.2226908928533e-06
-0.000559247741636129
-1.00401894634703e-05
-0.000550194303982817
-1.2812170187635e-05
-0.000539921337992606
-1.55424438649059e-05
-0.000528456082383985
-1.82265321996043e-05
-0.00051582589086017
-2.08684584196184e-05
-0.000502059635831711
-2.34692790474387e-05
-0.000487188690886648
-2.60218188052387e-05
-0.000471246199865543
-2.8524998911701e-05
-0.000454270245389923
-3.09647424383352e-05
-0.000436301898631025
-3.3336761641106e-05
-0.000417388394308702
-3.56248360200298e-05
-0.000397582574332512
-3.78149595291193e-05
-0.000376942969055004
-3.98934912912547e-05
-0.000355535585444337
-4.1840967727507e-05
-0.00033343416450006
-4.36375948752525e-05
-0.00031072062305528
-4.52620225863465e-05
-0.000287485542107163
-4.66911356723178e-05
-0.000263828570131338
-4.79010573131365e-05
-0.000239859066424299
-4.88650323953516e-05
-0.000215695719603764
-4.9557200854832e-05
-0.000191465190768391
-4.99548460381685e-05
-0.000167300374359491
-5.00392535248194e-05
-0.000143338397486103
-4.98016500599466e-05
-0.000119722868048791
-4.92293580906389e-05
-9.66087464437784e-05
-4.83008515722146e-05
-7.41668456143544e-05
-4.69768856856612e-05
-5.25866777694982e-05
-4.5225447675245e-05
-3.20831264696581e-05
-4.2979950923714e-05
-1.29014590741923e-05
-4.01982186611003e-05
4.67649551232849e-06
-3.67727605552338e-05
2.03102839038735e-05
-3.26345782239579e-05
3.35940418930531e-05
-2.76027757848047e-05
4.4048397154131e-05
-2.1641577033265e-05
5.11079818934886e-05
-1.44722042591899e-05
5.41036812891254e-05
-6.25270276607686e-06
5.22636519340506e-05
3.54842076279709e-06
4.47822458553831e-05
1.4241939263836e-05
3.13622195979423e-05
2.60178305367551e-05
2.45138507557177e-05
1.38599400027533e-05
3.5986878542185e-05
-2.81843871500421e-05
5.4869728740101e-05
-4.22036442144266e-05
7.76902503716366e-05
-5.11981496915259e-05
0.000102733321376129
-5.58204280591977e-05
0.000129858344172508
-6.0271005288163e-05
0.0001598977712852
-6.7023235205316e-05
0.000192550742724334
-7.31235017200143e-05
0.000225773044670618
-7.30930374967869e-05
0.000258376161791014
-7.04551976541164e-05
0.000289442948867462
-6.56626040464979e-05
0.000317668458798384
-5.79961332311209e-05
0.000340816121341489
-4.46531956094433e-05
0.000359818571991143
-3.59599734262443e-05
0.000376517554884357
-3.24590627023787e-05
0.000392726737925721
-3.27824927372943e-05
0.00041098996544305
-3.89069671166034e-05
0.000436202650638627
-5.65117977744687e-05
0.000473968053436602
-8.65334926295377e-05
0.00052406673161714
-0.000111646593425855
0.000589192066990443
-0.000144109932751077
0.000672998536949889
-0.000187563547104646
0.000767619793540397
-0.00020180207709572
0.00082062400395177
-5.94070210662718e-05
0.000718172102274405
0.000341353421110416
0.000449266955776651
0.000605570102025863
0.000154127762637188
0.000554700610537151
0.000196878012266433
0.000109927113315221
4.33028456280347e-05
8.10053284840711e-05
5.79086501433884e-06
3.80152463770589e-07
0.000150998282289184
-6.30275946310026e-05
8.79001078511502e-05
-7.63343834479624e-05
-1.86386908392758e-07
-6.48525718587024e-05
-3.22334748995264e-05
-5.38425525997468e-05
-2.70271702956871e-05
-4.61322881947613e-05
-2.02865363087777e-05
-4.29716043093168e-05
-8.87790016861755e-06
-4.38236572576337e-05
6.41628882034101e-07
-4.8126436606797e-05
9.29540213584887e-06
-5.45676547109001e-05
1.50180808840973e-05
-6.09152704284296e-05
1.56629145212275e-05
-6.4939128424756e-05
1.0873907138483e-05
-6.44781621008934e-05
1.01903750432512e-07
-5.80077961550938e-05
-1.56790237854992e-05
-4.50215377343956e-05
-3.41147076263289e-05
-2.63424555362034e-05
-5.05867421519243e-05
-3.19651436246402e-06
-6.34119653969631e-05
2.26896466871125e-05
-7.03721773202196e-05
4.8910256406979e-05
-6.92027882551908e-05
7.24174769681129e-05
-5.79637425726662e-05
8.96970747934448e-05
-3.59551529071068e-05
9.69475228305887e-05
-4.00305507305119e-06
9.13331684064223e-05
3.1147109989274e-05
7.40225749755991e-05
5.55907449317133e-05
5.4404605478293e-05
4.9750466624018e-05
4.28671238134768e-05
1.70419387683929e-05
3.8480964802835e-05
-1.21363856546267e-05
3.08141275207164e-05
-1.17094864923769e-05
6.56727177141378e-06
2.2246770764353e-05
-4.99072298950702e-05
9.43122774562063e-05
-0.000141304850960676
0.000188165226748404
-0.000248352457668344
0.000259458238168867
-0.000346931161735933
0.000277460427706067
-0.000425373065276914
0.000249442545034368
-0.000484128586303655
0.000203224955917216
-0.000527831059042907
0.000158803238617393
-0.000560702531171594
0.00012294728769802
-0.000585744791494574
9.56958491477902e-05
-0.000604982646422212
7.52558578815024e-05
-0.0006197720224232
5.97456181151662e-05
-0.000631024764647653
4.76784391991318e-05
-0.000639359997514692
3.7977473802333e-05
-0.00064520404719287
2.9901163129889e-05
-0.000648856516046245
2.29419062580478e-05
-0.000650535995290458
1.67812003846328e-05
-0.000650404407669854
1.1203546945082e-05
-0.000648580564812746
6.04254358570698e-06
-0.000645153449421504
1.18275703708175e-06
-0.000640194349796357
-3.45313016974207e-06
-0.000633761209940538
-7.91115703674571e-06
-0.000625899334767547
-1.22362860698674e-05
-0.000616651344352981
-1.64706819209561e-05
-0.000606058084947964
-2.06334514746691e-05
-0.000594155251071323
-2.47150033661718e-05
-0.000580974153176175
-2.87235470581935e-05
-0.0005665462335957
-3.26544505601569e-05
-0.000550903551593525
-3.65111433345615e-05
-0.000534079840817556
-4.02929852254424e-05
-0.000516111213638042
-4.39904499637894e-05
-0.000497036041585361
-4.76001678026895e-05
-0.00047689732893213
-5.11034555529882e-05
-0.000455741509020058
-5.44925769589424e-05
-0.000433621011409001
-5.77453325588598e-05
-0.000410594092326199
-6.08418766887104e-05
-0.000386724773543874
-6.37628087587905e-05
-0.00036208446184277
-6.64812795369863e-05
-0.000336752409107033
-6.89696467068333e-05
-0.000310816058211739
-7.11983744110993e-05
-0.000284371430524979
-7.31357625296304e-05
-0.000257523476829654
-7.47490120200398e-05
-0.00023038652837661
-7.60019795514838e-05
-0.000203083954814056
-7.68597747924254e-05
-0.000175746849469902
-7.72919505547534e-05
-0.000148512184561825
-7.72739187853932e-05
-0.000121521545210578
-7.6792289279209e-05
-9.49232610092917e-05
-7.58276433648864e-05
-6.88775867669469e-05
-7.43465254676291e-05
-4.35599142272457e-05
-7.22945598323983e-05
-1.91660230482225e-05
-6.96193377625958e-05
4.08451824054606e-06
-6.62304925421727e-05
2.5932972280577e-05
-6.20466730203734e-05
4.60825995244038e-05
-5.69223876707119e-05
6.41849841356606e-05
-5.07369632187224e-05
7.9843455801298e-05
-4.32612476685415e-05
9.25692167777774e-05
-3.43673372939547e-05
0.000101796075240833
-2.36990629510993e-05
0.000106771722119668
-1.12283492722317e-05
0.00010665838162069
3.66176001046798e-06
0.000100447565598264
2.04527555819788e-05
8.74357909618865e-05
3.902960533793e-05
7.90894517654562e-05
2.220628036846e-05
8.73221984046233e-05
-3.64171346406138e-05
0.00010494285966781
-5.98243046233147e-05
0.000127533791111563
-7.37890816796704e-05
0.000153116608786647
-8.14032455284363e-05
0.000181277728420342
-8.84321249620229e-05
0.000212611330216125
-9.83568369488197e-05
0.000246810059957094
-0.000107322231545447
0.000282177126845054
-0.000108460104625779
0.000317464938818735
-0.000105743009798822
0.000351732142748635
-9.99298096639227e-05
0.00038368455237419
-8.99485421215152e-05
0.000411300669012042
-7.22693115560375e-05
0.000434856578359001
-5.95158833453614e-05
0.000455810735633836
-5.3413219698001e-05
0.000475874137744111
-5.284589943716e-05
0.000497453113875918
-6.04859386389862e-05
0.000525203462366026
-8.42621443283332e-05
0.000564917928782953
-0.000126247958592024
0.000617767274746994
-0.000164495937571354
0.00068607870184176
-0.000212421359531362
0.000772569629357667
-0.000274054477506746
0.000871216636811897
-0.000300449084500097
0.000945369799259956
-0.000133560178621159
0.000902174884168486
0.000384548307717778
0.000677157896785616
0.000830587153196549
0.000357378166733287
0.00087448077311363
0.000391317739251307
0.000221921020384962
0.000154570993880616
0.00015621565892706
7.14960981944656e-05
4.75294036531453e-05
0.000259684597475051
-5.33567608404656e-05
0.000188786047265489
-9.01038424301005e-05
3.6560778561867e-05
-8.13020966278833e-05
-4.10351503262032e-05
-6.86695207259317e-05
-3.96597403617446e-05
-6.0313273911048e-05
-2.86427490367165e-05
-5.72233476039405e-05
-1.1967874387754e-05
-5.8729280234712e-05
2.14756471422086e-06
-6.39223633512178e-05
1.44884878259168e-05
-7.10075149357512e-05
2.21032414722598e-05
-7.73333485129231e-05
2.1988730318336e-05
-8.05928767723789e-05
1.4133445746242e-05
-7.88754952543093e-05
-1.61548030807755e-06
-7.09973224040971e-05
-2.35571961330085e-05
-5.66749446006788e-05
-4.84370906093364e-05
-3.66648158785471e-05
-7.05968666601145e-05
-1.20809801340132e-05
-8.79958044580344e-05
1.54956319181536e-05
-9.79487862099823e-05
4.37607011374969e-05
-9.74678577207864e-05
6.97254170946483e-05
-8.39284582398184e-05
8.99525811649746e-05
-5.61823174844679e-05
0.000100838215869776
-1.48886895472003e-05
9.93831786815748e-05
3.26021473893819e-05
8.52636760105109e-05
6.97102488557911e-05
6.50841853162023e-05
6.99299544490096e-05
4.76048283748695e-05
3.45212991969768e-05
3.33842280452588e-05
2.08421287941252e-06
1.26688694940998e-05
9.00587514385716e-06
-3.04918618122326e-05
6.54075017353597e-05
-0.000109046725261174
0.000172867140533737
-0.00021624575826337
0.00029536425860748
-0.00032709627777156
0.000370308756338412
-0.000420672489869483
0.000371036637265292
-0.000491916205121889
0.000320686261554276
-0.00054489026634798
0.000256199016538082
-0.00058463876894494
0.000198551743229033
-0.000614825970066593
0.000153134487020753
-0.000637930318452952
0.00011880019801908
-0.000655632965946403
9.29585042146641e-05
-0.000669084314291064
7.31969672736473e-05
-0.000679076687679254
5.76708112446211e-05
-0.000686161014243312
4.50618003709243e-05
-0.000690725235579191
3.44653839686581e-05
-0.000693048269930001
2.52649409814378e-05
-0.000693337951470435
1.70708814817943e-05
-0.000691751035845608
9.6166313040602e-06
-0.000688404635219608
2.69614239118016e-06
-0.000683388979400893
-3.83289937669529e-06
-0.000676774889479031
-1.00672207788431e-05
-0.000668620395409704
-1.60656521214635e-05
-0.000658976723060532
-2.18799602713301e-05
-0.00064789123525748
-2.75561710841671e-05
-0.000635406930598861
-3.31177586923702e-05
-0.000621561698774511
-3.8560235759332e-05
-0.000606389445361267
-4.38958045476139e-05
-0.000589924360103878
-4.91195357914242e-05
-0.000572201317810606
-5.42341878747652e-05
-0.000553256726791336
-5.92375737486361e-05
-0.000533129445934082
-6.41177332836808e-05
-0.000511860887952476
-6.88687237395063e-05
-0.000489497123025436
-7.34672204091447e-05
-0.000466087961752109
-7.79017349438082e-05
-0.000441689274561993
-8.21440185082642e-05
-0.000416363104455648
-8.6168045090792e-05
-0.000390177456384757
-8.99484555482776e-05
-0.000363207811992609
-9.34509236061587e-05
-0.000335537730328451
-9.66397275190687e-05
-0.000307259137240206
-9.94769678095128e-05
-0.000278472621443107
-0.000101922277630683
-0.000249287704431351
-0.000103933929430282
-0.000219823158641309
-0.000105466524460082
-0.000190206688066693
-0.000106476245484479
-0.000160573645282884
-0.000106924992760814
-0.000131065154990522
-0.000106782409198112
-0.000101827204962395
-0.000106030239144319
-7.3012685197613e-05
-0.000104642163665525
-4.47864812518787e-05
-0.000102572729156791
-1.73282298913665e-05
-9.97528120480902e-05
9.15866246841069e-06
-9.61062295601989e-05
3.44409217638355e-05
-9.15127520716986e-05
5.8249146048107e-05
-8.58548975218111e-05
8.02876761754391e-05
-7.89609176698739e-05
0.000100214136643975
-7.06634237889689e-05
0.000117641379200344
-6.06884900819333e-05
0.000132089885508192
-4.88158429963015e-05
0.000143007551451215
-3.46167287550133e-05
0.000149638178941896
-1.78589762992441e-05
0.000151150315337881
2.14962326729137e-06
0.00014649549333007
2.51075781199708e-05
0.000134706468824071
5.08186303483142e-05
0.000125677195001166
3.12355552754503e-05
0.000131255493972625
-4.1995433658647e-05
0.000147124068173111
-7.56928779490677e-05
0.000168832403757802
-9.54974171708048e-05
0.000194185357060509
-0.000106756198350851
0.000222542535788462
-0.000116789303369649
0.000254282737053627
-0.000130097037846014
0.000289038869017604
-0.000142078363198805
0.000325282609323028
-0.000144703844677731
0.00036174813361951
-0.000142208533720754
0.000397468015392963
-0.000135649691835868
0.000431159557404606
-0.000123640082754736
0.00046099429233733
-0.000102104045409924
0.000486970048743687
-8.54916393603789e-05
0.00051032569437876
-7.6768864341149e-05
0.000532662862812009
-7.51830696029481e-05
0.000556252388889341
-8.40754602140326e-05
0.000585465540518803
-0.00011347529361078
0.000625957150952998
-0.000166739567404674
0.000679704440165293
-0.000218243224214493
0.000748863668188077
-0.000281580585867124
0.000835437040001798
-0.000360627849204565
0.000933807319415935
-0.000398819361868443
0.00101358275821293
-0.000213335612085908
0.00101081580059056
0.000387315250812512
0.000854685603767055
0.000986717396462712
0.000567962081259855
0.00116120461988324
0.000626090458459162
0.000355325719817292
0.000311811774749658
0.000245040254474196
0.000181781453577518
0.000103751961916943
0.000400972922525599
-3.32302272859896e-05
0.000325768035395412
-9.72392848194312e-05
0.000100569952788834
-9.54463125013317e-05
-4.28280670855507e-05
-8.20855840197879e-05
-5.30204605085497e-05
-7.35338326923797e-05
-3.71944636405067e-05
-7.06617635536429e-05
-1.48399885738108e-05
-7.25135410159595e-05
3.99934459195069e-06
-7.78332190717115e-05
1.98081718189416e-05
-8.45983188659803e-05
2.88683510230031e-05
-9.01693212909988e-05
2.75597207836421e-05
-9.24722691882206e-05
1.64364006171048e-05
-8.98602763653531e-05
-4.22747469407389e-06
-8.12737811843888e-05
-3.21436907553222e-05
-6.64069271209478e-05
-6.33039476501567e-05
-4.58459527480012e-05
-9.11578384688884e-05
-2.05713045388122e-05
-0.0001132704545885
7.94810953627888e-06
-0.000126468198379364
3.74692985304665e-05
-0.000126989046850945
6.49943905839541e-05
-0.000111453550079657
8.70511412356975e-05
-7.82390683854066e-05
0.00010008626688834
-2.79238149998384e-05
0.000101186315393758
3.15020990242267e-05
8.94925019792967e-05
8.14040630539542e-05
6.92988414626887e-05
9.01236130835859e-05
4.71461411514099e-05
5.66740016478255e-05
2.4318137560131e-05
2.4912215320548e-05
-9.35817131350301e-06
4.2682185927349e-05
-7.11055669123912e-05
0.000127154897133301
-0.000167729316186414
0.00026949088968555
-0.000283341698035206
0.00041097663990416
-0.000391618406621441
0.000478585464273521
-0.000477796387451486
0.000457214616591542
-0.000542394409200679
0.000385284284385135
-0.000590936560112297
0.000304741167239366
-0.000627921060403368
0.000235536245064572
-0.000656324964517585
0.000181538390150404
-0.000678174448785417
0.000140649682829025
-0.00069488581567109
0.000109669870535409
-0.000707459373990663
8.57705263469352e-05
-0.000716603179016359
6.68146155706637e-05
-0.000722821541583467
5.12801632165006e-05
-0.000726477101407385
3.81209437531601e-05
-0.000727835813249766
2.66236534839534e-05
-0.000727099529671538
1.63345980016544e-05
-0.000724422901115179
6.94000318698222e-06
-0.00071992293429733
-1.8038242979035e-06
-0.000713689437217436
-1.00663962538283e-05
-0.000705794265467785
-1.79623923280675e-05
-0.000696299324390446
-2.55605931610776e-05
-0.000685259895166662
-3.29193898208071e-05
-0.000672725389652801
-4.00906766173124e-05
-0.000658739765005677
-4.71033841433344e-05
-0.000643342546518945
-5.39574537826736e-05
-0.000626569759354985
-6.06685935794886e-05
-0.000608457724189655
-6.7231570320211e-05
-0.000589043432631949
-7.3648480472953e-05
-0.000568365350657927
-7.9915653899261e-05
-0.000546464524857222
-8.60185605815627e-05
-0.000523384775327971
-9.19484720415392e-05
-0.000499174740780848
-9.76772552045974e-05
-0.000473887054916355
-0.000103189419136206
-0.000447580563805041
-0.000108450509306679
-0.000420320654239767
-0.00011342795403493
-0.000392178907826
-0.000118090201527492
-0.000363234540149908
-0.000122395291396828
-0.000333575096259931
-0.000126299171109802
-0.000303296700279801
-0.000129755364206475
-0.000272504266333939
-0.000132714711293851
-0.000241311681135719
-0.00013512651506178
-0.000209842025146852
-0.00013693617992292
-0.00017822726590117
-0.000138091004867906
-0.00014660701996775
-0.000138545238348459
-0.0001151266911302
-0.000138262738195678
-8.39367600786537e-05
-0.000137220170163366
-5.31947909976565e-05
-0.000135384133228903
-2.30702606793323e-05
-0.000132697259388943
6.2495554959494e-06
-0.000129072628903717
3.45471567377575e-05
-0.000124403830313603
6.15774481941727e-05
-0.000118543043607897
8.70697505761886e-05
-0.00011134719996428
0.000110731738802055