/*--------------------------------*- C++ -*----------------------------------*\
  =========                 |
  \\      /  F ield         | OpenFOAM: The Open Source CFD Toolbox
   \\    /   O peration     | Website:  https://openfoam.org
    \\  /    A nd           | Version:  7
     \\/     M anipulation  |
\*---------------------------------------------------------------------------*/
FoamFile
{
    version     2.0;
    format      ascii;
    class       volVectorField;
    location    "1000";
    object      wallShearStress;
}
// * * * * * * * * * * * * * * * * * * * * * * * * * * * * * * * * * * * * * //

dimensions      [0 2 -2 0 0 0 0];

internalField   uniform (0 0 0);

boundaryField
{
    bottomWall
    {
        type            calculated;
        value           nonuniform List<vector> 
120
(
(0.00225737380160165 1.65505949265539e-05 6.20748633174052e-23)
(0.0014368842307228 5.72419356867542e-06 1.30838682021877e-19)
(0.00119717105553564 -0.000107055985667538 3.76158192263132e-37)
(0.0013431512268545 -0.000312068529520533 1.10338056828496e-18)
(0.000897409118212231 -0.000388545707762617 1.35197568953177e-22)
(0.000704011125920226 -0.000415147437352379 2.24041871602569e-22)
(0.000525895424925456 -0.000364036748955562 2.25245712619383e-18)
(0.00039106059971445 -0.000295464677276095 -2.26053103437753e-18)
(0.000283816634321502 -0.000230966223671244 6.37026114938907e-16)
(0.000238109819986476 -0.000201443477891008 6.36555143644494e-16)
(0.000216849800870548 -0.00018555184532213 -5.5358270258205e-22)
(0.000227036146547953 -0.000191037419407772 1.10521714720821e-21)
(0.000245110981203685 -0.000201340801301102 -1.1038190997965e-21)
(0.000260943796049541 -0.000208562769478952 2.25621214177538e-18)
(0.000259692880742663 -0.000202662797257404 2.25852935371056e-18)
(0.000229208541250824 -0.000176212608134632 2.20325872620328e-21)
(0.000159339496977911 -0.000122946050163613 2.25354804428071e-18)
(5.42268962082274e-05 -4.69448216818476e-05 -4.52559234618133e-18)
(-7.02340219880565e-05 3.72339569530827e-05 2.25257758749838e-18)
(-0.000197135143836522 0.000113993158535859 2.24308432680471e-18)
(-0.000305746182928576 0.000167104923589512 -2.22054497724947e-18)
(-0.00037754037278419 0.000185446923083698 2.20233285393753e-18)
(-0.000399929763134066 0.000169520514159192 -3.95984438243182e-24)
(-0.000367668150666368 0.00012846848822529 -2.18508141817483e-18)
(-0.000288711388014599 7.73522722150595e-05 2.40741243048404e-35)
(-0.000186899570612652 3.33792879524637e-05 -9.62964972193618e-35)
(-0.000103859506871966 9.32228906717867e-06 1.61895987228321e-16)
(-7.91198681309604e-05 2.62153886235401e-06 1.66251015163792e-16)
(-0.000126511239647616 4.06917321417465e-06 -5.30110215185545e-25)
(-0.000216096494383582 6.48466176153135e-06 -1.56401761812733e-32)
(-0.000299879498210115 6.89861806772221e-06 0)
(-0.000348380613337689 6.88612852616612e-06 1.82703366301842e-16)
(-0.000334253366654662 7.04787744849364e-06 1.84730087397102e-16)
(-0.000215922808588281 5.58390520244168e-06 0)
(2.90444638421422e-05 1.17413701110877e-06 -3.18044389895144e-53)
(0.000363727888304861 -3.84319818054366e-06 -1.75556365230249e-51)
(0.00071974510935532 -7.4078914654686e-06 0)
(0.00104937776563385 -9.01261440378987e-06 1.87386917557086e-21)
(0.0013323168691125 -9.242649554625e-06 -1.50707086744463e-16)
(0.00156755649481433 -8.85451173903897e-06 -1.48508019454672e-16)
(0.00176178804647989 -8.3441959986832e-06 1.73965188613287e-21)
(0.00192342112859333 -7.91524736558307e-06 1.7108159885665e-21)
(0.00205974845435815 -7.61836526803478e-06 -1.68865998009802e-21)
(0.0021764344086912 -7.43567520941582e-06 1.67241965128836e-21)
(0.00227756005119752 -7.33167272518497e-06 -1.65650683170639e-21)
(0.00236595173828812 -7.26217365631464e-06 0)
(0.00244352488732147 -7.20056740560642e-06 1.41430891998133e-16)
(0.00251168585293858 -7.13276762049259e-06 1.41862867082762e-16)
(0.00257143986633242 -7.04340587747951e-06 1.63035742467328e-21)
(0.00262346278638015 -6.92007272873716e-06 -8.12825937361304e-22)
(0.00266820720165523 -6.75242109500381e-06 8.16699726897733e-22)
(0.00270598415371495 -6.53596682049244e-06 -1.63204443800907e-21)
(0.00273700527319272 -6.2623736858281e-06 1.36028243004733e-16)
(0.00276127462967243 -5.91963091304187e-06 1.36993674122501e-16)
(0.00277865231398073 -5.50281177635829e-06 4.111360552051e-22)
(0.00278908981466769 -5.02052921235797e-06 -9.35505575720733e-42)
(0.00279258123895084 -4.47415699886049e-06 -2.43062590863102e-32)
(0.00278912623553353 -3.86776405809747e-06 2.11107194785429e-22)
(0.0027786974889589 -3.20058385042763e-06 -3.17625279840011e-22)
(0.00276123063623309 -2.47375505938188e-06 1.06541456463865e-22)
(0.00273669477172873 -1.69191245474821e-06 0)
(0.00270505385147653 -8.55889917735252e-07 -2.19417097580849e-22)
(0.00266628473018552 2.72174525031635e-08 2.20056096053012e-22)
(0.00262040031809631 9.5513113894816e-07 -2.60565577152925e-32)
(0.00256741922734012 1.92050750011602e-06 -0)
(0.00250742864271975 2.91594421330227e-06 4.62337197775112e-22)
(0.00244054443057901 3.9347502948109e-06 -4.64895249191012e-22)
(0.00236693689447031 4.967701689379e-06 -0)
(0.00228684413572664 6.00535914507003e-06 0)
(0.00220057484942474 7.03745223334106e-06 0)
(0.00210851732262069 8.05294076799903e-06 0)
(0.00201114487085422 9.04084932875042e-06 0)
(0.00190902592224763 9.98884857334926e-06 -1.73077743842964e-16)
(0.00180283593848891 1.08848622266618e-05 -3.51700039666097e-16)
(0.00169335322405494 1.1717158708508e-05 -1.78634409070549e-16)
(0.00158145472918214 1.24752591358406e-05 4.38923824645153e-21)
(0.00146806920857011 1.31548481049269e-05 -2.22900882206582e-21)
(0.00135413296034126 1.37540858994467e-05 2.29206850988873e-21)
(0.00124059907144157 1.42718846138134e-05 -2.31936147883668e-21)
(0.00112851265630974 1.47023992891435e-05 -1.98751317193961e-16)
(0.00101897494898558 1.50476819426535e-05 -2.0063401184125e-16)
(0.00091326044964922 1.52978322577745e-05 2.45858012665244e-21)
(0.000812642521820105 1.5463937294612e-05 -2.52114962711335e-21)
(0.00071875657758313 1.55308878442258e-05 5.11608033380698e-21)
(0.000633062385671013 1.55305845832487e-05 -2.59403062727664e-21)
(0.000557791878816028 1.54342612513013e-05 5.30212504300701e-21)
(0.000494329119032669 1.52926143080639e-05 -1.07306341870145e-20)
(0.000445884484716932 1.50393601391518e-05 5.42284340855832e-21)
(0.00041281800591037 1.47879707237546e-05 5.51288559911324e-21)
(0.000400357132503662 1.43814322189606e-05 -1.11036588235425e-20)
(0.000404448071002669 1.41267653152087e-05 7.16020363009084e-26)
(0.000431814721382789 1.30592678456192e-05 6.82863758393395e-25)
(0.000501762715293751 2.60303047502739e-05 0)
(0.000474169944622941 5.91269513840382e-05 -5.62703420554831e-21)
(0.000378140594718374 6.86526896429857e-05 1.46723931477385e-18)
(0.00026642323732928 5.71589721665847e-05 2.40552804504216e-23)
(0.000123254089658037 1.55813945787557e-05 3.00244622659973e-18)
(-4.15814000177536e-05 -5.71251388542676e-05 3.04159220030228e-18)
(-0.000246912461619667 -0.000171739065940216 -3.00858328231502e-18)
(-0.000515402300847235 -0.000343011546371956 2.97071970593612e-18)
(-0.000831400462307567 -0.000563085027575733 -2.93648000914503e-18)
(-0.00117770122441346 -0.000816452249928364 -2.90566335695712e-18)
(-0.00154435831524873 -0.00108975585556372 -1.44444745829043e-34)
(-0.00192536313469237 -0.00137062703580348 -3.00926553810506e-36)
(-0.00227663745917473 -0.00162767557399731 2.83302351708478e-18)
(-0.00260278976170428 -0.00187334597021008 2.81510223501334e-18)
(-0.00296432155883974 -0.00215093479344233 2.79491022516295e-18)
(-0.00339892408407836 -0.0024901588737882 2.76894830557848e-18)
(-0.0039506302925333 -0.00292499132562558 2.73395030471586e-18)
(-0.00471381452110853 -0.0035215789980436 -2.67866776187887e-18)
(-0.00588230772805007 -0.00437919080934296 -2.59077844700192e-18)
(-0.0074574279944541 -0.00539520663703125 2.46403653507564e-18)
(-0.00937297863206387 -0.00641302663690045 -2.28852777875237e-18)
(-0.0118007095061488 -0.00732979985768982 -2.05807982106281e-18)
(-0.0144929578667724 -0.00769068225634101 1.77521526553285e-18)
(-0.0160789780569813 -0.006521021835504 -2.10648587667354e-35)
(-0.0123948660774909 -0.00324671751098433 -6.48330341295613e-19)
(-0.00507681380949472 -0.00077279352340575 0)
(0.000687160505052268 -0.000104771031513913 1.07746576766609e-19)
(0.00271068975714617 -6.64465818181745e-06 0)
)
;
    }
    topWall
    {
        type            calculated;
        value           nonuniform List<vector> 
120
(
(-0.00318784931023796 -9.3590930735015e-07 0)
(-0.00322647016502056 -8.85722024887823e-07 0)
(-0.00326085597673958 -7.12154836684457e-07 0)
(-0.0032891507664684 -5.4725939913818e-07 0)
(-0.0033124070612587 -4.19786987609637e-07 0)
(-0.00333136293467015 -3.09108904702801e-07 0)
(-0.00334646254312185 -2.14059283265295e-07 0)
(-0.00335814748526376 -1.30092800708006e-07 0)
(-0.00336670149578276 -5.27397465776981e-08 0)
(-0.00337232726193157 1.8726768152327e-08 0)
(-0.0033752185262862 8.42060517103782e-08 0)
(-0.00337565722877549 1.40458745409268e-07 0)
(-0.00337397984113492 1.88287643485825e-07 0)
(-0.00337045313643741 2.30602008000012e-07 0)
(-0.00336526535602576 2.68672233718233e-07 0)
(-0.0033585330262128 3.04294855746026e-07 0)
(-0.00335036124947144 3.36397404284309e-07 0)
(-0.00334089554552431 3.65231010748223e-07 0)
(-0.00333023430315421 3.92718100932255e-07 0)
(-0.00331843789841566 4.1935756884531e-07 0)
(-0.00330553103580317 4.46085470038551e-07 0)
(-0.00329152943156739 4.72294206493632e-07 0)
(-0.00327647757896206 4.98012315744045e-07 0)
(-0.00326037929722738 5.24869868119655e-07 0)
(-0.00324321234363356 5.5328561421584e-07 0)
(-0.00322492802552805 5.82704714954843e-07 0)
(-0.0032054983616607 6.1314627480697e-07 0)
(-0.0031849177813888 6.4384776403867e-07 0)
(-0.00316312772974351 6.78090897340364e-07 0)
(-0.00314005477887449 7.13220243964293e-07 0)
(-0.00311562701797466 7.51602222498193e-07 0)
(-0.00308980894812628 7.8820085652894e-07 0)
(-0.00306254405634849 8.30193365397993e-07 0)
(-0.00303373276229441 8.70502310899522e-07 0)
(-0.00300329331509712 9.1674109048036e-07 0)
(-0.00297115907700917 9.59285744629484e-07 0)
(-0.0029372916874631 1.00732801454406e-06 0)
(-0.00290158312480615 1.05452386151063e-06 0)
(-0.00286396910328536 1.10513313534071e-06 0)
(-0.00282441956095596 1.15338053191972e-06 0)
(-0.00278288155963336 1.20529947770215e-06 0)
(-0.00273933438966222 1.25502559339945e-06 0)
(-0.00269360720711168 1.30741805262547e-06 0)
(-0.0026460905526474 1.35230663730785e-06 0)
(-0.00259620133933217 1.41001787429378e-06 0)
(-0.00254419867531823 1.45209287448094e-06 0)
(-0.00249040291246402 1.48740913997879e-06 0)
(-0.00243492716209134 1.52529936479827e-06 0)
(-0.00237770593732241 1.56271988455317e-06 0)
(-0.00231885022782687 1.59595346103162e-06 0)
(-0.00225851682530114 1.62409881633381e-06 0)
(-0.00219686617387819 1.64743046353078e-06 0)
(-0.00213407595756408 1.66529438355441e-06 0)
(-0.00207035417002091 1.6775020491771e-06 0)
(-0.00200593254456252 1.68180841168308e-06 0)
(-0.00194120633522809 1.67700428969483e-06 0)
(-0.00187629870761949 1.67003278059005e-06 0)
(-0.0018111172164746 1.66542267333425e-06 0)
(-0.00174579215985271 1.65612261696181e-06 0)
(-0.00168076350717564 1.63444511409436e-06 0)
(-0.00161658812667255 1.59902318705481e-06 0)
(-0.00155381144578101 1.54758569246051e-06 0)
(-0.00149314239585337 1.47776156996702e-06 0)
(-0.00143509978075648 1.39357034196283e-06 0)
(-0.00138001867460838 1.29829387603569e-06 0)
(-0.0013282738997509 1.18982461004932e-06 0)
(-0.00128021316140385 1.0706192803124e-06 0)
(-0.0012359522230713 9.49304166146809e-07 0)
(-0.00119536564778111 8.3381854983928e-07 0)
(-0.00115819571794374 7.28729297594684e-07 0)
(-0.0011241839594317 6.3351027369713e-07 0)
(-0.00109316770810901 5.47126925959935e-07 0)
(-0.00106504952299786 4.6811804639973e-07 0)
(-0.00103980796648877 3.93252897259801e-07 0)
(-0.00101749272183496 3.20885192278985e-07 0)
(-0.000998150917263692 2.50134541812152e-07 0)
(-0.000981823293733019 1.80748301816518e-07 0)
(-0.000968492981651425 1.13754321395255e-07 0)
(-0.000958100578042741 4.95568472553818e-08 0)
(-0.000950535895094591 -1.07556380760021e-08 0)
(-0.000945649929428731 -6.73227930057569e-08 0)
(-0.000943371491279515 -1.23649082759292e-07 0)
(-0.000943754196678973 -1.84371106259023e-07 0)
(-0.000947055387789553 -2.56723484256419e-07 0)
(-0.000953721891924185 -3.44382747063301e-07 0)
(-0.00096407382149387 -4.39451268738537e-07 0)
(-0.000977773998210749 -5.17658916424268e-07 0)
(-0.000993387493784192 -5.43673864433243e-07 0)
(-0.00100826082753687 -4.83771632149742e-07 0)
(-0.00101909949649463 -3.24445775684868e-07 0)
(-0.00102296325142236 -8.57509867922041e-08 0)
(-0.00101866109874434 1.70401936636201e-07 0)
(-0.00100811033209537 3.56834533457545e-07 0)
(-0.000995777273608168 4.13698995359973e-07 0)
(-0.000987345062498521 3.06909260427806e-07 0)
(-0.000989191302534822 9.23210412738079e-09 0)
(-0.00100711106868136 -4.57933392392524e-07 0)
(-0.00104471937937856 -1.02905471333241e-06 0)
(-0.00110288047527089 -1.62456914344083e-06 0)
(-0.00118037487633906 -2.18037258237913e-06 0)
(-0.00127439242474325 -2.65281717075032e-06 0)
(-0.0013818703624652 -3.02568510776952e-06 0)
(-0.00149877566945925 -3.29072602089316e-06 0)
(-0.00162279647624947 -3.46534225839861e-06 0)
(-0.00174890552065733 -3.45244857700875e-06 0)
(-0.00187506307911486 -3.49962941957965e-06 0)
(-0.00200199853307428 -3.537741327785e-06 0)
(-0.00212703983924631 -3.39025987637968e-06 0)
(-0.00224673043945341 -3.2236828264977e-06 0)
(-0.00236101608068739 -3.0514240209984e-06 0)
(-0.00246926554422947 -2.86322198168943e-06 0)
(-0.00257099827048299 -2.66495873385391e-06 0)
(-0.00266596045673085 -2.45978695530641e-06 0)
(-0.00275398901394163 -2.25242355320487e-06 0)
(-0.00283519548438921 -2.0499470323502e-06 0)
(-0.00290969124872235 -1.85364763097631e-06 0)
(-0.00297787508707648 -1.66714789039477e-06 0)
(-0.00303957420720688 -1.48314699622529e-06 0)
(-0.00309566273891931 -1.3163898653322e-06 0)
(-0.00314513797378252 -1.077144873395e-06 0)
)
;
    }
    inlet_half0
    {
        type            cyclic;
    }
    inlet_half1
    {
        type            cyclic;
    }
    outlet_half0
    {
        type            cyclic;
    }
    outlet_half1
    {
        type            cyclic;
    }
    sideRight_half0
    {
        type            empty;
    }
    sideRight_half1
    {
        type            empty;
    }
    sideLeft_half0
    {
        type            empty;
    }
    sideLeft_half1
    {
        type            empty;
    }
}


// ************************************************************************* //
