3 	0.00391112967796271 	-1.90819582357449e-17 	-0.0537427174939543 	0.000122954268911432 	-4.8089324522656e-20
3 	0.0118766651674914 	-2.42861286636753e-17 	-0.142929351946305 	0.00020694286989111 	3.99104814862488e-20
3 	0.0201340015485759 	-2.77555756156289e-17 	-0.195073367151195 	0.000310641003588259 	-1.75366687261363e-20
3 	0.0286938283423949 	-3.12250225675825e-17 	-0.215088342953879 	0.00032849270196635 	1.88482885095601e-20
3 	0.0375672266585909 	-3.12250225675825e-17 	-0.221031882181014 	0.000277790170724724 	3.08087816122635e-21
3 	0.0467656835403032 	-2.42861286636753e-17 	-0.222003821732462 	0.000190173450812877 	-1.42924793521128e-20
3 	0.0563011068347007 	-1.56125112837913e-17 	-0.220963073925193 	7.75082879342411e-05 	-3.85357963343632e-21
3 	0.0661858406082649 	-1.73472347597681e-17 	-0.21890190280414 	-5.49947577997954e-05 	2.65455069557633e-17
3 	0.0764326811267816 	-1.90819582357449e-17 	-0.216216607935196 	-0.000204537325079119 	2.07118805076529e-16
3 	0.0870548934207257 	-1.73472347597681e-17 	-0.213089399640007 	-0.000369682916757533 	-1.65129572844068e-16
3 	0.0980662284574838 	-1.56125112837913e-17 	-0.209611470733417 	-0.000549772795576772 	-2.46934860885279e-17
3 	0.109480940942647 	-8.67361737988404e-18 	-0.205829808695376 	-0.000744618261607477 	-3.89297539952222e-21
3 	0.121313807773417 	-3.46944695195361e-18 	-0.201767512096236 	-0.000954355285734742 	8.96106483162708e-17
3 	0.133580147168011 	-5.20417042793042e-18 	-0.197433528692941 	-0.00117937398541374 	9.91008209729043e-17
3 	0.146295838495839 	-6.93889390390723e-18 	-0.192827678218033 	-0.00142028423238364 	-7.86350130005226e-17
3 	0.159477342834115 	0 	-0.187943378846198 	-0.00167790201155353 	-8.82682788765725e-17
3 	0.173141724277517 	1.38777878078145e-17 	-0.182769169554053 	-0.00195324930863198 	-4.9212947555553e-21
3 	0.18730667202848 	3.12250225675825e-17 	-0.177289558346936 	-0.00224756372303526 	-8.58667513225223e-21
3 	0.201990523296728 	4.16333634234434e-17 	-0.171485468795178 	-0.00256231580019989 	-8.44364890946689e-22
3 	0.217212287037676 	3.81639164714898e-17 	-0.165334431174886 	-0.00289923309219534 	7.85841726082662e-22
3 	0.232991668560441 	3.81639164714898e-17 	-0.158810598943434 	-0.00326033052603689 	6.18897450610975e-21
3 	0.249349095037321 	4.5102810375397e-17 	-0.151884635244906 	-0.00364794695144748 	1.66877864735909e-21
3 	0.266305741947753 	4.85722573273506e-17 	-0.144523493109384 	-0.00406478787112832 	3.40583817288791e-21
3 	0.283883560490999 	4.16333634234434e-17 	-0.136690099816831 	-0.00451397436767325 	4.39335097604515e-21
3 	0.30210530600303 	3.46944695195361e-17 	-0.128342946806705 	-0.00499909811527358 	-1.11784895661671e-21
3 	0.320994567414414 	2.77555756156289e-17 	-0.119435579483557 	-0.00552428207310916 	2.54076470511373e-21
3 	0.340575797787321 	1.04083408558608e-17 	-0.109915975118021 	-0.00609424594205365 	-2.06387404250613e-21
3 	0.360874345971201 	0 	-0.0997257910492097 	-0.00671437463838257 	8.87732669328298e-17
3 	0.381916489418091 	3.46944695195361e-18 	-0.0887994591628778 	-0.0073907868712237 	1.48735911362233e-16
3 	0.403729468200046 	1.04083408558608e-17 	-0.0770630960889662 	-0.00813039940317251 	-1.42540295992227e-16
3 	0.426341520272733 	2.08166817117217e-17 	-0.0644331921176348 	-0.00894097883470838 	-1.00849170061142e-16
3 	0.441285719950775 	2.60208521396521e-17 	-0.0558488815802312 	-0.00949915238045687 	6.5711658270451e-22
3 	0.453216730115852 	2.94902990916057e-17 	-0.0487856211900454 	-0.00996491199930701 	2.76078059433755e-21
3 	0.474081006202548 	3.12250225675825e-17 	-0.036122554387933 	-0.0108086100169216 	2.15254623166833e-16
3 	0.499270241132364 	4.16333634234434e-17 	-0.02021249621166 	-0.0118853906130153 	2.60676291191859e-16
3 	0.525382231502763 	6.24500451351651e-17 	-0.00294843122383935 	-0.013072634085654 	-3.07783705606118e-16
3 	0.552450780547767 	5.89805981832114e-17 	0.0158302382350035 	-0.0143802991150174 	-2.00224374406533e-16
3 	0.58051092981285 	4.5102810375397e-17 	0.0363637566767755 	-0.0158188077466728 	4.08128913764419e-20
3 	0.609599004517911 	3.81639164714898e-17 	0.059165359448411 	-0.0174147734927341 	1.73857210998306e-20
3 	0.639752660582033 	3.81639164714898e-17 	0.0851330558613437 	-0.0192092320499797 	2.11346655990489e-20
3 	0.671010933370887 	4.16333634234434e-17 	0.115194457384366 	-0.0212357278475935 	1.92716346432398e-20
3 	0.703414288229901 	4.16333634234434e-17 	0.14983300105002 	-0.0234731551496656 	-1.32847132478912e-20
3 	0.737004672868606 	4.5102810375397e-17 	0.189062799840283 	-0.0258547569567624 	2.61379272359635e-20
3 	0.771825571663976 	5.89805981832114e-17 	0.232578507314018 	-0.0282880532362083 	-6.80774328424326e-20
3 	0.807922061953054 	6.24500451351651e-17 	0.279871823870686 	-0.0306748852202274 	-2.51486704670986e-20
3 	0.845340872387743 	5.55111512312578e-17 	0.330293915041601 	-0.0329297837421288 	-8.31241471083691e-17
3 	0.88413044342731 	5.55111512312578e-17 	0.383100240959548 	-0.0349886813189205 	-7.41073151119554e-17
3 	0.924340990046898 	5.55111512312578e-17 	0.437497907320649 	-0.0368051416186512 	6.93952925736648e-17
3 	0.966024566743242 	5.89805981832114e-17 	0.492673179372609 	-0.0383383903218313 	5.96070864938377e-17
3 	1.00923513492173 	6.24500451351651e-17 	0.54777014572985 	-0.0395427097119839 	1.97262931438236e-20
3 	1.05402863275206 	6.24500451351651e-17 	0.60182952866892 	-0.0403669134845271 	6.40527632625719e-21
3 	1.10046304758287 	6.59194920871187e-17 	0.653749681615391 	-0.0407660581386574 	-2.79160489362538e-23
3 	1.14859849100923 	6.93889390390723e-17 	0.702373204151183 	-0.0407227551579001 	-7.79312382850774e-20
3 	1.19849727668995 	6.59194920871187e-17 	0.746811398249349 	-0.0402762087312985 	1.1970549361755e-21
3 	1.25022400101563 	6.04984812246911e-17 	0.787028597049268 	-0.0394382220456999 	1.57931900613591e-19
3 	1.30384562673186 	5.70290342727375e-17 	0.823282661001019 	-0.0383115576972867 	6.1223147604752e-21
3 	1.35943156962566 	5.46437894932694e-17 	0.855759182448473 	-0.0370306501976125 	7.90531304845301e-21
3 	1.41705378838763 	5.63785129692462e-17 	0.884771125034207 	-0.03574486662182 	1.15533683904594e-19
3 	1.47678687776592 	6.24500451351651e-17 	0.910961643953496 	-0.034502004933922 	5.20538042570142e-21
3 	1.53870816513278 	6.24500451351651e-17 	0.935011498637596 	-0.0333014541114673 	-6.87002361540591e-20
3 	1.60289781058851 	6.07153216591882e-17 	0.957454744919569 	-0.0321154913457279 	1.34623687983829e-20
3 	1.66943891073267 	5.89805981832114e-17 	0.97863958021978 	-0.0309064414801922 	1.54766722393485e-20
3 	1.73841760623657 	5.20417042793042e-17 	0.998772954931325 	-0.0296376264624421 	8.91207886258141e-21
3 	1.8099231933566 	4.85722573273506e-17 	1.01795431553041 	-0.0282802474071116 	-1.87365518817083e-20
3 	1.88404823953249 	4.68375338513738e-17 	1.03618369312462 	-0.0268163752220937 	-1.07004271560358e-20
3 	1.96088870322038 	1.73472347597681e-17 	1.05249304450138 	-0.0253328595884497 	-2.3128803838297e-20
3 	2 	2.08166817117217e-17 	1.05983239410748 	-0.0246211554384853 	0
3 	2.02024009608346 	2.42861286636753e-17 	1.06465822360874 	-0.0241080836333907 	0
3 	2.06000503604194 	2.77555756156289e-17 	1.07310652720313 	-0.0231741239543952 	0
3 	2.09836474743796 	2.77555756156289e-17 	1.08001918206203 	-0.0223477081486081 	0
3 	2.13536888877257 	2.77555756156289e-17 	1.08629370421251 	-0.021548885127653 	0
3 	2.17106536369585 	2.77555756156289e-17 	1.0919807496415 	-0.0207751685040074 	0
3 	2.20550038302044 	2.77555756156289e-17 	1.09712651446729 	-0.0200274241995051 	0
3 	2.23871852454378 	2.42861286636753e-17 	1.10177285235695 	-0.0193058518852878 	0
3 	2.27076279075613 	2.08166817117217e-17 	1.10595744345526 	-0.0186102674513659 	0
3 	2.30167466450941 	2.08166817117217e-17 	1.10971399925312 	-0.0179402544095605 	0
3 	2.33149416271872 	1.73472347597681e-17 	1.1130724880065 	-0.017295220752092 	0
3 	2.36025988816627 	1.38777878078145e-17 	1.1160593669813 	-0.0166744443536406 	0
3 	2.38800907947441 	1.38777878078145e-17 	1.1186978102484 	-0.0160771132185944 	0
3 	2.41477765931296 	1.38777878078145e-17 	1.12100792381636 	-0.015502357641073 	0
3 	2.44060028090273 	1.38777878078145e-17 	1.12300694288849 	-0.0149492753568128 	0
3 	2.46551037287587 	1.38777878078145e-17 	1.1247094084514 	-0.014416950994213 	0
3 	2.48954018255081 	1.38777878078145e-17 	1.1261273222151 	-0.013904470862719 	-9.4059214342155e-16
3 	2.51272081767801 	1.38777878078145e-17 	1.12727028025011 	-0.0134109339619987 	-9.16323431084471e-16
3 	2.53508228671038 	1.38777878078145e-17 	1.12814558664521 	-0.0129354599624603 	9.88386163726528e-16
3 	2.55665353765073 	1.38777878078145e-17 	1.12875834926441 	-0.0124771947798362 	9.64117451389498e-16
3 	2.57746249552636 	1.38777878078145e-17 	1.12911156030298 	-0.0120353142509443 	0
3 	2.59753609853934 	1.38777878078145e-17 	1.12920616488557 	-0.0116090263152585 	0
3 	2.6169003329393 	1.38777878078145e-17 	1.1290411214322 	-0.0111975720162382 	0
3 	2.6355802666639 	1.38777878078145e-17 	1.12861345791988 	-0.0108002255561333 	0
3 	2.6536000817905 	1.38777878078145e-17 	1.12791832842859 	-0.0104162935672216 	0
3 	2.67098310584103 	1.73472347597681e-17 	1.12694907437808 	-0.0100451137007615 	0
3 	2.68775184198056 	2.08166817117217e-17 	1.1256972944946 	-0.00968605258277804 	0
3 	2.70392799814879 	2.08166817117217e-17 	1.12415292662378 	-0.00933850314456353 	0
3 	2.71953251516198 	2.08166817117217e-17 	1.12230434285095 	-0.00900188130797542 	0
3 	2.73458559382185 	2.08166817117217e-17 	1.12013845686004 	-0.00867562199466596 	0
3 	2.74910672106653 	2.08166817117217e-17 	1.117640839006 	-0.00835917443820124 	0
3 	2.76311469519732 	2.08166817117217e-17 	1.11479583029444 	-0.00805199681212395 	0
3 	2.776627650214 	2.08166817117217e-17 	1.11158664167218 	-0.00775355024728018 	0
3 	2.78966307929018 	2.08166817117217e-17 	1.10799542028449 	-0.00746329239700985 	0
3 	2.80223785741904 	1.73472347597681e-17 	1.1040032604006 	-0.00718067081370703 	0
3 	2.81436826325886 	1.38777878078145e-17 	1.09959013438464 	-0.00690511651471325 	0
3 	2.82607000020648 	1.38777878078145e-17 	1.09473471912737 	-0.00663603822551233 	0
3 	2.83735821672614 	1.38777878078145e-17 	1.08941409616481 	-0.00637281787791817 	0
3 	2.84824752595991 	1.38777878078145e-17 	1.08360330919074 	-0.0061148079957832 	0
3 	2.85875202464507 	1.38777878078145e-17 	1.07727477012606 	-0.00586133161046843 	0
3 	2.86888531136304 	1.38777878078145e-17 	1.07039751310843 	-0.00561168530918854 	0
3 	2.87866050414343 	1.38777878078145e-17 	1.06293630313211 	-0.00536514593352988 	0
3 	2.88809025744591 	1.38777878078145e-17 	1.05485061090304 	-0.00512098132163074 	0
3 	2.89718677854204 	1.38777878078145e-17 	1.04609346614815 	-0.00487846536853972 	0
3 	2.90596184331819 	1.38777878078145e-17 	1.03661019666269 	-0.00463689759400326 	0
3 	2.91442681151997 	1.38777878078145e-17 	1.0263370486451 	-0.00439562678254373 	0
3 	2.92259264145801 	1.38777878078145e-17 	1.01519966462434 	-0.00415407698795204 	0
3 	2.93046990419395 	1.38777878078145e-17 	1.00311136296971 	-0.00391179371983179 	0
3 	2.93806879722526 	1.73472347597681e-17 	0.98997000163641 	-0.00366850684187397 	0
3 	2.94539915768638 	2.08166817117217e-17 	0.975632201189998 	-0.00342367168568661 	0
3 	2.95247047508335 	2.08166817117217e-17 	0.959875280469691 	-0.00317581055128169 	0
3 	2.9592919035784 	2.08166817117217e-17 	0.942421210494977 	-0.00292318074619136 	0
3 	2.96587227384055 	2.08166817117217e-17 	0.922995998672731 	-0.00266519956018218 	0
3 	2.97222010447726 	2.08166817117217e-17 	0.901330717397842 	-0.00240288538517558 	0
3 	2.97834361306218 	2.08166817117217e-17 	0.877121469946119 	-0.00213837537708895 	0
3 	2.98425072677325 	2.08166817117217e-17 	0.849984741898845 	-0.00187441062120805 	0
3 	2.98994909265477 	2.08166817117217e-17 	0.819397686764038 	-0.00161406156945799 	0
3 	2.99544608751689 	2.08166817117217e-17 	0.784608246434969 	-0.0013605731399858 	0
3 	3.00074882748522 	2.08166817117217e-17 	0.744492001074726 	-0.00111726338924868 	0
3 	3.00586417721304 	2.08166817117217e-17 	0.697316884498892 	-0.000887482535189638 	0
3 	3.01079875876789 	2.42861286636753e-17 	0.640344355684502 	-0.000674748677832006 	1.33271640396383e-14
3 	3.01555896020418 	2.77555756156289e-17 	0.56916258260649 	-0.000482494283291955 	9.46948212029201e-15
3 	3.02015094383282 	2.77555756156289e-17 	0.477050949658181 	-0.000313349378446587 	-2.10420224810917e-14
3 	3.02458065419862 	2.77555756156289e-17 	0.358629021006738 	-0.000172020998549565 	-1.71843405617429e-14
3 	3.02885382577583 	2.77555756156289e-17 	0.219160177163854 	-6.93895897168792e-05 	0
