8 	0.451351328258348 	2.42861286636753e-17 	1.32003982056056 	0.000566089931846353 	1076.21980664017 	0.011299126958357
8 	0.457856884620643 	2.08166817117217e-17 	1.31960311350901 	0.00416767667705027 	327.897243310831 	0.0346248543686595
8 	0.464597494115106 	2.42861286636753e-17 	1.31906857965921 	0.0117154126305036 	97.4232368958312 	0.0418708394449089
8 	0.471581531993148 	2.42861286636753e-17 	1.31839755199977 	0.018750085719107 	46.1956544972038 	0.0355444417838018
8 	0.478817663648092 	2.08166817117217e-17 	1.31755401385256 	0.0241347307237434 	28.2967084850598 	0.0288636766382851
8 	0.486314854098318 	2.25514051876985e-17 	1.31656677781849 	0.0283650345127536 	19.9742868455393 	0.024166239298971
8 	0.49408237774287 	1.56125112837913e-17 	1.31546251865863 	0.0318768149081922 	15.3031930998166 	0.0208831490435392
8 	0.502129828395036 	1.04083408558608e-17 	1.31425188146381 	0.034918510645447 	12.3480730875056 	0.0184906628128382
8 	0.510467129599323 	2.08166817117217e-17 	1.3129397784817 	0.0376340868389911 	10.3236826504488 	0.0166773078053972
8 	0.519104545237329 	2.08166817117217e-17 	1.31152969076846 	0.0401123959130426 	8.85709223526744 	0.0152589484479416
8 	0.528052690427915 	1.73472347597681e-17 	1.31002407903732 	0.0424115376757189 	7.7498982836215 	0.0141217950036825
8 	0.537322542727032 	2.08166817117217e-17 	1.3084245742841 	0.0445713020528888 	6.88726221281039 	0.0131921231364185
8 	0.546925453632554 	1.90819582357449e-17 	1.3067322614865 	0.0466199261725985 	6.19827187801676 	0.0124201167196748
8 	0.556873160399407 	1.47451495458029e-17 	1.30494787666375 	0.0485779849977434 	5.63684554259805 	0.0117708830163629
8 	0.567177798170198 	1.82145964977565e-17 	1.30307192993624 	0.0504607478315341 	5.17177590283119 	0.0112192233990002
8 	0.577851912426569 	2.25514051876985e-17 	1.3011047972377 	0.0522796679890405 	4.78119823982202 	0.0107464582726689
8 	0.58890847176635 	2.51534904016637e-17 	1.29904679905551 	0.054043359361121 	4.44935179092793 	0.010338425763066
8 	0.600360881011604 	2.94902990916057e-17 	1.29689827455157 	0.0557582573144626 	4.16459918119947 	0.0099841787654175
8 	0.612222994652597 	3.12250225675825e-17 	1.29465965533344 	0.0574290794132174 	3.91816982717511 	0.00967511309416063
8 	0.624509130632625 	2.86229373536173e-17 	1.29233153554537 	0.0590591565176742 	3.70333738870522 	0.00940437095513044
8 	0.637234084478675 	2.73218947466347e-17 	1.28991474896116 	0.0606506792362891 	3.51486692532072 	0.00916642607034714
8 	0.65041314378278 	2.77555756156289e-17 	1.28741057257152 	0.0622048898957987 	3.34863509828516 	0.00895679276081772
8 	0.664062103038993 	2.86229373536173e-17 	1.2848211674308 	0.0637222423090699 	3.20136478959404 	0.00877182308706248
8 	0.678197278840822 	2.57226965422186e-17 	1.28214870961189 	0.0652025447362302 	3.07043739030065 	0.00860856865300024
8 	0.692835525444093 	2.52890156732244e-17 	1.27937666239451 	0.0666445205591928 	2.95392358639016 	0.00846507300435859
8 	0.707994250700163 	2.77555756156289e-17 	1.27649744344932 	0.068046875392569 	2.85021609352345 	0.00833974012349142
8 	0.723691432364531 	2.42861286636753e-17 	1.27360692998939 	0.0694106134920286 	2.7576232617067 	0.0082305179316469
8 	0.739945634786034 	2.08166817117217e-17 	1.2708307810597 	0.0707452984315851 	2.67428639893811 	0.00813526366136627
8 	0.756776025981913 	2.08166817117217e-17 	1.26814295246682 	0.0720663145026949 	2.59824529056101 	0.00805152764468714
8 	0.77420239510431 	2.08166817117217e-17 	1.26539868631964 	0.0733786227287578 	2.52843661310485 	0.00797787326838393
8 	0.792245170304006 	2.42861286636753e-17 	1.26253199118404 	0.0746780751912603 	2.46435583991845 	0.00791337555315058
8 	0.810925436997537 	2.42861286636753e-17 	1.25954177275702 	0.0759581134130146 	2.40557802935563 	0.00785703481837597
8 	0.830264956544259 	2.42861286636753e-17 	1.25643273493472 	0.077210916281444 	2.35168236823237 	0.00780768575871929
8 	0.850286185340416 	2.08166817117217e-17 	1.25320767500894 	0.0784276327162834 	2.30224227881871 	0.00776399154771812
8 	0.871012294337907 	1.04083408558608e-17 	1.24987093802835 	0.0795985495825123 	2.25682153658204 	0.00772444546246647
8 	0.892467188996067 	3.46944695195361e-18 	1.24642885333246 	0.0807132005132163 	2.21497463525113 	0.00768737936546826
8 	0.914675529675727 	-3.46944695195361e-18 	1.24288936577227 	0.0817604548445248 	2.17624931944011 	0.00765097887681367
8 	0.93766275248567 	-3.46944695195361e-18 	1.23926194161992 	0.0827286130179339 	2.14018983827678 	0.00761330432288327
8.00000000000001 	0.961455090592773 	0 	1.2355575685104 	0.0836055153277735 	2.10634048347589 	0.0075723172691978
8.00000000000001 	0.986079596008391 	3.46944695195361e-18 	1.23178873492437 	0.0843786674669083 	2.0742492389255 	0.00752591266443557
8.00000000000001 	1.01156416186494 	0 	1.22796938286873 	0.0850353857992009 	2.04347142072179 	0.00747195647499449
8.00000000000001 	1.03793754519838 	-6.93889390390723e-18 	1.22411483486265 	0.0855629637035611 	2.01357324464926 	0.00740832848985355
8.00000000000001 	1.06522939025402 	-6.93889390390723e-18 	1.22024168622651 	0.0859488586059984 	1.9841353138762 	0.007332969777875
8.00000000000001 	1.09347025233532 	-1.73472347597681e-17 	1.21636765168603 	0.0861808984993917 	1.9547560901041 	0.00724393422745613
8.00000000000001 	1.12269162221744 	-2.42861286636753e-17 	1.21251136169965 	0.0862475071585913 	1.92505549230235 	0.00713944368249395
8 	1.15292595115017 	-1.38777878078145e-17 	1.20869210620843 	0.0861379486890998 	1.89467886081268 	0.00701794637157587
8 	1.18420667647759 	-3.46944695195361e-18 	1.20492952327753 	0.085842594203143 	1.86330162737422 	0.00687817853525575
8.00000000000001 	1.20932909530118 	-6.07153216591882e-18 	1.2020444674616 	0.085482657724006 	1.83797827438841 	0.00675634874086311
8.00000000000001 	1.2257861591868 	-1.64798730217797e-17 	1.20022145665768 	0.0851897422406582 	1.82129618314774 	0.00667210007216618
8 	1.25005321751835 	-1.38777878078145e-17 	1.19764470458642 	0.0846691539430794 	1.7964812446135 	0.00654116197265679
8 	1.28469102414858 	-1.04083408558608e-17 	1.19415874467817 	0.0837807721078251 	1.7606107167528 	0.00634343250232373
8 	1.32051868198682 	-1.38777878078145e-17 	1.19080276391683 	0.0826853974858235 	1.72288052740173 	0.00612647379998223
8.00000000000001 	1.3575749113027 	-1.73472347597681e-17 	1.18759140924362 	0.0813832075674711 	1.68321292439976 	0.00589128961323524
8.00000000000001 	1.39589958614844 	-1.73472347597681e-17 	1.18453520477806 	0.0798769544369943 	1.64159318811001 	0.00563939926380141
8.00000000000001 	1.43553376564931 	-1.21430643318376e-17 	1.18163769969157 	0.0781723496690598 	1.59807389559524 	0.00537283775560864
8.00000000000001 	1.4765197263157 	-1.38777878078145e-17 	1.17889523742782 	0.0762799703986591 	1.55281442626312 	0.0050943539142219
8.00000000000001 	1.51890099544909 	-1.38777878078145e-17 	1.17630794250345 	0.0742200728349171 	1.50620076102698 	0.00480799859004229
8.00000000000001 	1.56272238572048 	-8.67361737988404e-18 	1.17390643255375 	0.07202776505459 	1.45901120510521 	0.00451974323458392
8.00000000000001 	1.60803003100718 	-1.38777878078145e-17 	1.17175865248212 	0.0697448881618335 	1.41232606649249 	0.00423635250020578
8.00000000000001 	1.65487142358089 	-1.38777878078145e-17 	1.16988299881288 	0.0673804101003574 	1.36670602426697 	0.00396040354372695
8.00000000000001 	1.70329545274807 	-6.93889390390723e-18 	1.16827991625653 	0.0649202386727414 	1.32205552025445 	0.00369099123156108
8 	1.75335244505158 	-8.45677694538693e-18 	1.16687988891294 	0.0623668816179684 	1.27847990127841 	0.00342877525286525
8 	1.80509420615116 	-4.98732999343332e-18 	1.16561341467124 	0.0597363183556796 	1.23642001462415 	0.00317602041968147
8.00000000000001 	1.85857406450892 	-3.46944695195361e-18 	1.16448276846226 	0.057047903748092 	1.19650330049843 	0.00293536677160714
8.00000000000001 	1.91384691701537 	-6.93889390390723e-18 	1.16350094539386 	0.0543250550459408 	1.15935102203755 	0.00270866570000753
8.00000000000001 	1.97096927670054 	-1.21430643318376e-17 	1.16265015436289 	0.051618418242438 	1.12605829948919 	0.00249990240597474
8 	2.02024009608346 	1.38777878078145e-17 	1.16207051094376 	0.0493409475762196 	1.10143867662458 	0.00233723626328221
8 	2.06000503604194 	2.08166817117217e-17 	1.16162372814157 	0.047514032942564 	1.08405937467856 	0.00221508071334261
8 	2.09836474743796 	2.08166817117217e-17 	1.16128054144946 	0.045824351557937 	1.07027640479663 	0.00210910634794157
8 	2.13536888877258 	1.38777878078145e-17 	1.16100930511713 	0.0442358859020174 	1.05959812571808 	0.00201564597860145
8 	2.17106536369585 	2.08166817117217e-17 	1.16079195533748 	0.0427417426604951 	1.05187362557814 	0.00193333372955195
8 	2.20550038302044 	2.77555756156289e-17 	1.16062156182368 	0.0413350925433666 	1.04697059193754 	0.00186096269468177
8 	2.23871852454378 	2.77555756156289e-17 	1.16049206919421 	0.0400093116960202 	1.04477587248339 	0.00179747243622011
8 	2.27076279075613 	2.77555756156289e-17 	1.16039787118505 	0.0387580987587453 	1.0451962642759 	0.00174193755610277
8 	2.30167466450941 	2.77555756156289e-17 	1.16033413249188 	0.037575543180181 	1.04815876839764 	0.00169355498901025
8 	2.33149416271872 	2.77555756156289e-17 	1.16029668811081 	0.0364561594759895 	1.05361053232595 	0.00165163122588397
8 	2.36025988816626 	2.08166817117217e-17 	1.16028192106624 	0.0353948981543239 	1.06151864849629 	0.00161557018564755
8 	2.38800907947441 	1.38777878078145e-17 	1.16028667816719 	0.0343871406581125 	1.07186991708897 	0.00158486208050444
8 	2.41477765931295 	1.38777878078145e-17 	1.1603082025155 	0.033428683801071 	1.08467065278589 	0.00155907343562489
8 	2.44060028090272 	1.38777878078145e-17 	1.16034407660269 	0.0325157177125967 	1.09994659490332 	0.00153783830840493
8 	2.46551037287586 	1.73472347597681e-17 	1.16039217472097 	0.0316448001563029 	1.11774296520602 	0.00152085068097215
8 	2.48954018255081 	2.08166817117217e-17 	1.16045062321976 	0.0308128292235807 	1.1381247076077 	0.00150785796035125
8 	2.512720817678 	1.73472347597681e-17 	1.16051776720562 	0.0300170157662474 	1.16117693787556 	0.00149865550269962
8 	2.53508228671037 	1.38777878078145e-17 	1.16059214255204 	0.029254856466073 	1.18700562852237 	0.00149308207340659
8 	2.55665353765073 	1.38777878078145e-17 	1.16067245229882 	0.0285241081013824 	1.21573855371277 	0.00149101615846868
8 	2.57746249552636 	1.38777878078145e-17 	1.16075754668369 	0.0278227633293019 	1.24752652087533 	0.00149237305108209
8 	2.59753609853934 	1.38777878078145e-17 	1.16084640618141 	0.0271490281315438 	1.28254491962078 	0.00149710264874425
8 	2.61690033293929 	1.38777878078145e-17 	1.16093812703544 	0.0265013009529865 	1.32099562451403 	0.00150518790909697
8 	2.63558026666389 	1.73472347597681e-17 	1.16103190885713 	0.0258781534816122 	1.36310929639158 	0.00151664392663541
8 	2.65360008179049 	2.42861286636753e-17 	1.16112704394216 	0.0252783129651821 	1.40914813759738 	0.00153151760703246
8 	2.67098310584102 	2.77555756156289e-17 	1.16122290801474 	0.0247006459267545 	1.4594091702705 	0.00154988793128739
8 	2.68775184198056 	2.42861286636753e-17 	1.1613189521611 	0.0241441431222839 	1.51422812444808 	0.00157186681855851
8 	2.70392799814879 	2.08166817117217e-17 	1.16141469575473 	0.0236079055752331 	1.5739840453455 	0.00159760061498587
8 	2.71953251516198 	2.42861286636753e-17 	1.16150972021078 	0.0230911315227099 	1.63910475824332 	0.00162727225691488
8 	2.73458559382185 	2.08166817117217e-17 	1.16160366343439 	0.0225931041133752 	1.71007336697593 	0.00166110418187012
8 	2.74910672106653 	2.08166817117217e-17 	1.16169621485119 	0.0221131797081421 	1.78743601081768 	0.00169936209097392
7.99999999999999 	2.76311469519732 	2.77555756156289e-17 	1.16178711092703 	0.0216507766498791 	1.87181116829083 	0.0017423597043597
8 	2.776627650214 	2.77555756156289e-17 	1.16187613109901 	0.0212053643875423 	1.96390088008255 	0.00179046469931822
8 	2.78966307929018 	3.12250225675825e-17 	1.16196309405269 	0.0207764528631056 	2.06450437367108 	0.00184410608325035
8 	2.80223785741904 	3.81639164714898e-17 	1.16204785428993 	0.0203635820959157 	2.174534718778 	0.00190378333517847
8 	2.81436826325886 	4.16333634234434e-17 	1.16213029894008 	0.0199663119279672 	2.29503933833349 	0.00197007775772596
8 	2.82607000020647 	3.46944695195361e-17 	1.16221034477272 	0.0195842119238163 	2.42722546237046 	0.00204366662600998
8 	2.83735821672613 	2.77555756156289e-17 	1.16228793537568 	0.0192168514484042 	2.5724919677695 	0.00212534091467688
8 	2.8482475259599 	2.77555756156289e-17 	1.16236303846354 	0.0188637899718841 	2.73246953175884 	0.00221602764901058
8 	2.85875202464506 	2.77555756156289e-17 	1.1624356432861 	0.0185245676681357 	2.90907169481012 	0.00231681828887816
8 	2.86888531136304 	2.77555756156289e-17 	1.16250575810399 	0.0181986963767982 	3.10456035752584 	0.00242900505629589
8 	2.87866050414343 	2.77555756156289e-17 	1.16257340770231 	0.0178856509785615 	3.32163054348945 	0.00255412781908231
8 	2.88809025744591 	3.46944695195361e-17 	1.16263863090744 	0.0175848611780563 	3.56352112363137 	0.00269403513487699
8 	2.89718677854204 	4.16333634234434e-17 	1.16270147807487 	0.0172957035803222 	3.83416089127147 	0.00285096447884593
8 	2.90596184331818 	4.5102810375397e-17 	1.16276200850786 	0.017017493759422 	4.13836332937416 	0.00302764873563746
8 	2.91442681151997 	4.5102810375397e-17 	1.16282028776604 	0.0167494777098147 	4.48208930552602 	0.00322745906073822
8 	2.922592641458 	4.5102810375397e-17 	1.16287638481315 	0.0164908215744289 	4.87280587356945 	0.00345459872961738
8 	2.93046990419394 	5.20417042793042e-17 	1.16293036894409 	0.0162405977403778 	5.31998318716555 	0.00371436943265812
8 	2.93806879722526 	5.20417042793042e-17 	1.1629823064161 	0.0159977640750488 	5.83579334101019 	0.0040135420062773
8 	2.94539915768638 	4.5102810375397e-17 	1.16303225668299 	0.0157611308605366 	6.43611012233409 	0.00436088007716166
8 	2.95247047508334 	3.81639164714898e-17 	1.16308026809359 	0.0155293061599196 	7.14196673431481 	0.00476789133048054
8 	2.9592919035784 	3.46944695195361e-17 	1.16312637285215 	0.0153006035490369 	7.98172704550587 	0.00524992352857379
8 	2.96587227384055 	3.46944695195361e-17 	1.16317058091907 	0.01507288368859 	8.99439794459257 	0.00582779198296693
8 	2.97222010447726 	3.46944695195361e-17 	1.16321287235989 	0.014843277666194 	10.2348209565053 	0.00653024055516485
8 	2.97834361306218 	3.46944695195361e-17 	1.16325318738311 	0.0146076940795317 	11.7820634755067 	0.00739773010520911
8 	2.98425072677325 	3.12250225675825e-17 	1.16329141263047 	0.0143599189712317 	13.7534694337893 	0.00848836228619031
8 	2.98994909265477 	2.42861286636753e-17 	1.16332735944181 	0.0140899229798399 	16.3291737902078 	0.009887228286064
8 	2.99544608751689 	2.42861286636753e-17 	1.16336072597031 	0.0137805649635417 	19.7970018535978 	0.0117210532277655
8 	3.00074882748522 	2.77555756156289e-17 	1.16339104935528 	0.0134009145956082 	24.6396545455456 	0.0141799158734755
8 	3.00586417721304 	2.77555756156289e-17 	1.16341766362497 	0.0128921441319013 	31.7166265505726 	0.0175427138425611
8 	3.01079875876789 	2.77555756156289e-17 	1.16343930397442 	0.012136650034332 	42.6799804197828 	0.0221709306676096
8 	3.01555896020418 	2.42861286636753e-17 	1.16345212750691 	0.0108914962337947 	61.0482114325108 	0.0282694415941296
8 	3.02015094383281 	2.42861286636753e-17 	1.16344871106241 	0.00868851368499635 	95.5830230761293 	0.0345324402225373
8 	3.02458065419861 	2.77555756156289e-17 	1.16343136075288 	0.00508496253310792 	176.270942914863 	0.0344901886488646
8 	3.02885382577582 	2.08166817117217e-17 	1.16341773444148 	0.00147553950858214 	491.554002942174 	0.0209223677186719
8 	3.03297599039165 	1.21430643318376e-17 	1.1634144963543 	0.000157494822365713 	1722.01513172928 	0.00591757760447633
