8 	0.451351328258348 	2.42861286636753e-17 	1.32022632606225 	0.000567326642690591 	1076.21962664165 	0.0113245270323795
8 	0.457856884620643 	2.08166817117217e-17 	1.31978908216077 	0.00417596099268885 	327.896589889427 	0.0346972474623735
8 	0.464597494115106 	2.42861286636753e-17 	1.31925384721395 	0.0117344102544096 	97.4256062584719 	0.0419425174742772
8 	0.471581531993148 	2.42861286636753e-17 	1.31858189065796 	0.0187765112047339 	46.2015680230389 	0.0356002328575607
8 	0.478817663648092 	2.08166817117217e-17 	1.31773720241994 	0.0241663247561384 	28.3034642155398 	0.0289087269229516
8 	0.486314854098318 	2.25514051876985e-17 	1.3167486617546 	0.0284007072105919 	19.9807092547994 	0.0242045697232104
8 	0.49408237774287 	1.56125112837913e-17 	1.31564297029832 	0.0319159307277567 	15.3090512416188 	0.020916870573492
8 	0.502129828395036 	1.04083408558608e-17 	1.31443077972707 	0.0349606401002897 	12.3533942495643 	0.0185210148820126
8 	0.510467129599323 	2.08166817117217e-17 	1.3131170077298 	0.0376789134224806 	10.3285455726513 	0.0167050894036928
8 	0.519104545237329 	2.08166817117217e-17 	1.31170514098153 	0.0401596720451974 	8.86157521322673 	0.0152847090581855
8 	0.528052690427915 	1.73472347597681e-17 	1.31019764516654 	0.0424610604364304 	7.75406804196692 	0.0141459308195259
8 	0.537322542727032 	2.08166817117217e-17 	1.30859615584377 	0.0446228984314903 	6.89117329721179 	0.0132149303640001
8 	0.546925453632554 	1.90819582357449e-17 	1.30690176246424 	0.0466734434338222 	6.20196847584185 	0.0124418232329567
8 	0.556873160399407 	1.47451495458029e-17 	1.30511520557396 	0.0486332840161749 	5.64036354523316 	0.011791668191322
8 	0.567177798170198 	1.82145964977565e-17 	1.30323699994165 	0.0505176982473178 	5.17514467088247 	0.0112392310829298
8 	0.577851912426569 	2.25514051876985e-17 	1.3012675263127 	0.0523381445309673 	4.78444199857853 	0.0107658055655673
8 	0.58890847176635 	2.51534904016637e-17 	1.29920711017496 	0.0541032389466643 	4.4524907050263 	0.0103572091394475
8 	0.600360881011604 	2.94902990916057e-17 	1.29705609589403 	0.0558194166865013 	4.16765017765326 	0.0100024784509396
8 	0.612222994652597 	3.12250225675825e-17 	1.29481492047243 	0.0574913931640355 	3.9211472285503 	0.00969299626728819
8 	0.624509130632625 	2.86229373536173e-17 	1.29248418357538 	0.0591224954091544 	3.7062534057061 	0.00942189414361661
8 	0.637234084478675 	2.73218947466347e-17 	1.29006472470268 	0.0607149087652213 	3.5177320468244 	0.0091836369922469
8 	0.65041314378278 	2.77555756156289e-17 	1.28755782781374 	0.0622698690849694 	3.35145840844828 	0.00897373178740932
8 	0.664062103038993 	2.86229373536173e-17 	1.28496566289171 	0.0637878227352131 	3.20415423594861 	0.0087885244626032
8 	0.678197278840822 	2.57226965422186e-17 	1.28229040857278 	0.0652685698673516 	3.07320002281831 	0.00862506158462497
8 	0.692835525444093 	2.52890156732244e-17 	1.27951545205745 	0.0667108240058353 	2.95666580153152 	0.00848138303062579
8 	0.707994250700163 	2.77555756156289e-17 	1.27663324199229 	0.0681132814748527 	2.85294375813411 	0.00835588970430499
8 	0.723691432364531 	2.42861286636753e-17 	1.27374041705286 	0.0694769474128494 	2.76034111540274 	0.00824652510827013
8 	0.739945634786034 	2.08166817117217e-17 	1.27096265426971 	0.0708114484227785 	2.67699276831809 	0.00815113289407058
8 	0.756776025981913 	2.08166817117217e-17 	1.26827250984318 	0.0721321503045826 	2.60093831396247 	0.0080672577290933
8 	0.77420239510431 	2.08166817117217e-17 	1.26552500073509 	0.0734438917192322 	2.53111955667319 	0.00799346414520469
8 	0.792245170304006 	2.42861286636753e-17 	1.26265483704261 	0.0747424744684265 	2.46703191648798 	0.00792882214637363
8 	0.810925436997537 	2.42861286636753e-17 	1.25966104606274 	0.0760213013423044 	2.40824936230966 	0.00787232496743429
8 	0.830264956544259 	2.42861286636753e-17 	1.2565482911735 	0.077272511305905 	2.35434990077959 	0.00782279943687419
8 	0.850286185340416 	2.08166817117217e-17 	1.25331937338226 	0.0784872138745511 	2.30490567103098 	0.00777890018482165
8 	0.871012294337907 	1.04083408558608e-17 	1.24997865773094 	0.0796556575340035 	2.25947908552464 	0.00773911138793048
8 	0.892467188996067 	3.46944695195361e-18 	1.24653249142784 	0.0807673387070295 	2.21762323886486 	0.00770175544623455
8 	0.914675529675727 	-3.46944695195361e-18 	1.24298883781446 	0.0818110911229571 	2.17888447073177 	0.0076650083777884
8 	0.93766275248567 	-3.46944695195361e-18 	1.23935718485264 	0.0827751817652113 	2.14280564080401 	0.00762692100637402
8.00000000000001 	0.961455090592773 	0 	1.23564854541549 	0.083647420171672 	2.10892968269321 	0.00758544574709378
8.00000000000001 	0.986079596008391 	3.46944695195361e-18 	1.23187543665994 	0.0844152845274724 	2.0768032648229 	0.00753846901394276
8.00000000000001 	1.01156416186494 	0 	1.22805183238958 	0.0850660674916786 	2.04598043889257 	0.00748384913043887
8.00000000000001 	1.03793754519838 	-6.93889390390723e-18 	1.22419308953207 	0.0855870431457202 	2.01602621498264 	0.00741945942767205
8.00000000000001 	1.06522939025402 	-6.93889390390723e-18 	1.22031583996821 	0.0859656547277276 	1.98652005748121 	0.00734323601307053
8.00000000000001 	1.09347025233532 	-1.73472347597681e-17 	1.21643783681142 	0.0861897219670366 	1.95705936564989 	0.0072532296332453
8.00000000000001 	1.12269162221744 	-2.42861286636753e-17 	1.21257775034655 	0.0862476672056488 	1.92726308330545 	0.00714766113260201
8 	1.15292595115017 	-1.38777878078145e-17 	1.20875491112164 	0.0861287609144673 	1.89677567590123 	0.00702498019013262
8 	1.18420667647759 	-3.46944695195361e-18 	1.20498899757094 	0.0858233893774718 	1.86527181628147 	0.00688392722387611
8.00000000000001 	1.20932909530118 	-6.07153216591882e-18 	1.20210153676657 	0.0854552059944338 	1.83983868479495 	0.00676103128208611
8.00000000000001 	1.2257861591868 	-1.64798730217797e-17 	1.20027708174249 	0.085156806154562 	1.82308095762577 	0.00667607086642735
8 	1.25005321751835 	-1.38777878078145e-17 	1.19769841277009 	0.0846280333881876 	1.7981487728466 	0.00654406948975674
8 	1.28469102414858 	-1.04083408558608e-17 	1.19421007707043 	0.0837278355477537 	1.76210155439969 	0.00634480708550297
8 	1.32051868198682 	-1.38777878078145e-17 	1.19085208900253 	0.0826201433968555 	1.72417751436279 	0.00612626066778272
8.00000000000001 	1.3575749113027 	-1.73472347597681e-17 	1.18763909777749 	0.0813052110493762 	1.68429924792793 	0.00588945398893135
8.00000000000001 	1.39589958614844 	-1.73472347597681e-17 	1.18458161498279 	0.0797858852426091 	1.64245282952519 	0.00563592972071018
8.00000000000001 	1.43553376564931 	-1.21430643318376e-17 	1.18168316724712 	0.0780679950914898 	1.59869220151126 	0.00536774956874691
8.00000000000001 	1.4765197263157 	-1.38777878078145e-17 	1.1789400887525 	0.0761622706101935 	1.55317894354103 	0.00508769294650584
8.00000000000001 	1.51890099544909 	-1.38777878078145e-17 	1.17635251293943 	0.0740891766374755 	1.50630259683796 	0.00479984597391233
8.00000000000001 	1.56272238572048 	-8.67361737988404e-18 	1.17395094103092 	0.0718840826936293 	1.45884671019433 	0.00451021716975121
8.00000000000001 	1.60803003100718 	-1.38777878078145e-17 	1.17180291615478 	0.0695890340040592 	1.41189667959623 	0.00422559517145423
8.00000000000001 	1.65487142358089 	-1.38777878078145e-17 	1.16992714407921 	0.0672129066154172 	1.36601231764626 	0.00394854340636869
8.00000000000001 	1.70329545274807 	-6.93889390390723e-18 	1.16832397227556 	0.0647415535799063 	1.3210958195707 	0.00367814657830345
8 	1.75335244505158 	-8.45677694538693e-18 	1.16692339088588 	0.062177665548944 	1.27725517880855 	0.00341508018566121
8 	1.80509420615116 	-4.98732999343332e-18 	1.16565670620857 	0.0595373550595803 	1.23493336223211 	0.00316161559709726
8.00000000000001 	1.85857406450892 	-3.46944695195361e-18 	1.16452619366025 	0.0568401090212553 	1.19475993671501 	0.00292039499880284
8.00000000000001 	1.91384691701537 	-6.93889390390723e-18 	1.16354478887982 	0.0541093842781431 	1.15735719308638 	0.00269325611997918
8.00000000000001 	1.97096927670054 	-1.21430643318376e-17 	1.16269479681371 	0.0513959362315042 	1.1238231175059 	0.00248417108169722
8 	2.02024009608346 	1.38777878078145e-17 	1.16211582433208 	0.0491137782326009 	1.09900763827838 	0.00232132232360478
8 	2.06000503604194 	2.08166817117217e-17 	1.16166988542854 	0.0472839913974283 	1.08147882228047 	0.00219908857008566
8 	2.09836474743796 	2.08166817117217e-17 	1.16132754519102 	0.0455923677128246 	1.06756343048349 	0.00209308870039339
8 	2.13536888877258 	1.38777878078145e-17 	1.1610571563763 	0.0440027330410827 	1.05676601273682 	0.00199964119285518
8 	2.17106536369585 	2.08166817117217e-17 	1.16084066846064 	0.0425081127774972 	1.04893458548786 	0.00191737108110541
8 	2.20550038302044 	2.77555756156289e-17 	1.16067114554963 	0.0411016033876558 	1.04393596205439 	0.00184506423986108
8 	2.23871852454378 	2.77555756156289e-17 	1.16054252545974 	0.039776515602599 	1.04165632757537 	0.00178165468602272
8 	2.27076279075613 	2.77555756156289e-17 	1.16044919677578 	0.0385264908628239 	1.04200200449267 	0.00172621281914823
8 	2.30167466450941 	2.77555756156289e-17 	1.16038631957427 	0.0373455685539274 	1.04489968153588 	0.00167793242002039
8 	2.33149416271872 	2.77555756156289e-17 	1.16034972443887 	0.036228219266531 	1.05029633605534 	0.00163611764242831
8 	2.36025988816626 	2.08166817117217e-17 	1.1603357901726 	0.0351693548779668 	1.05815901725806 	0.0016001707062701
8 	2.38800907947441 	1.38777878078145e-17 	1.16034135954155 	0.0341643227832494 	1.06847459658093 	0.00156958062454567
8 	2.41477765931295 	1.38777878078145e-17 	1.16036367177673 	0.0332088897213009 	1.08124956366633 	0.00154391311489516
8 	2.44060028090272 	1.38777878078145e-17 	1.16040030567996 	0.0322992191882409 	1.09650992652231 	0.00152280173341641
8 	2.46551037287586 	1.73472347597681e-17 	1.16044913205477 	0.0314318452865435 	1.11430125958823 	0.00150594019893135
8 	2.48954018255081 	2.08166817117217e-17 	1.16050827398892 	0.0306036450003016 	1.13468893341493 	0.00149307583792043
8 	2.512720817678 	1.73472347597681e-17 	1.1605760735839 	0.0298118102522848 	1.15775855358613 	0.00148400406323319
8 	2.53508228671037 	1.38777878078145e-17 	1.16065106399549 	0.0290538206337438 	1.18361663353429 	0.00147856379568974
8 	2.55665353765073 	1.38777878078145e-17 	1.16073194586323 	0.0283274173612004 	1.21239152548693 	0.00147663374175094
8 	2.57746249552636 	1.38777878078145e-17 	1.16081756737009 	0.0276305787734 	1.24423463557023 	0.00147812944928029
8 	2.59753609853934 	1.38777878078145e-17 	1.16090690730644 	0.0269614975113829 	1.27932195292535 	0.00148300107499128
8 	2.61690033293929 	1.38777878078145e-17 	1.16099906062248 	0.026318559406429 	1.3178559285541 	0.00149123181025821
8 	2.63558026666389 	1.73472347597681e-17 	1.16109322604384 	0.0257003240204172 	1.36006774766838 	0.00150283692594042
8 	2.65360008179049 	2.42861286636753e-17 	1.16118869539943 	0.0251055067305203 	1.40622004991523 	0.00151786341152548
8 	2.67098310584102 	2.77555756156289e-17 	1.16128484437219 	0.0245329622175431 	1.4566101655354 	0.00153639019934181
8 	2.68775184198056 	2.42861286636753e-17 	1.16138112443402 	0.0239816691991489 	1.51157395308525 	0.00155852898119613
8 	2.70392799814879 	2.08166817117217e-17 	1.16147705576762 	0.0234507162418545 	1.57149034691983 	0.00158442564316335
8 	2.71953251516198 	2.42861286636753e-17 	1.16157222101251 	0.0229392884863816 	1.63678675170937 	0.00161426236527067
8 	2.73458559382185 	2.08166817117217e-17 	1.16166625970048 	0.0224466551279794 	1.70794545888547 	0.00164826045765276
8 	2.74910672106653 	2.08166817117217e-17 	1.16175886326874 	0.0219721575055945 	1.78551130883488 	0.00168668403499338
7.99999999999999 	2.76311469519732 	2.77555756156289e-17 	1.16184977055801 	0.021515197670589 	1.87010088658159 	0.00172984466881405
8 	2.776627650214 	2.77555756156289e-17 	1.16193876371797 	0.0210752273266707 	1.96241362263227 	0.00177810720524589
8 	2.78966307929018 	3.12250225675825e-17 	1.16202566445497 	0.0206517370574095 	2.0632452814166 	0.00183189699812802
8 	2.80223785741904 	3.81639164714898e-17 	1.16211033056688 	0.0202442457856538 	2.17350446666839 	0.00189170888878531
8 	2.81436826325886 	4.16333634234434e-17 	1.16219265271749 	0.0198522904394318 	2.29423296907481 	0.00195811837173759
8 	2.82607000020647 	3.46944695195361e-17 	1.16227255140945 	0.0194754158300963 	2.42663104460993 	0.00203179552969672
8 	2.83735821672613 	2.77555756156289e-17 	1.16234997411861 	0.0191131647782778 	2.57208906768899 	0.0021135225152618
8 	2.8482475259599 	2.77555756156289e-17 	1.16242489255624 	0.0187650685483546 	2.73222748819507 	0.00220421562019476
8 	2.85875202464506 	2.77555756156289e-17 	1.16249730002714 	0.0184306376679666 	2.90894768865797 	0.00230495333399237
8 	2.86888531136304 	2.77555756156289e-17 	1.16256720885294 	0.0181093532092047 	3.1044972656668 	0.0024170122923105
8 	2.87866050414343 	2.77555756156289e-17 	1.16263464782924 	0.0178006585838096 	3.32155456496664 	0.00254191371258437
8 	2.88809025744591 	3.46944695195361e-17 	1.16269965968467 	0.0175039518440259 	3.56333916018141 	0.00268148389860266
8 	2.89718677854204 	4.16333634234434e-17 	1.16276229850777 	0.0172185783666029 	3.83375765435495 	0.00283793380388974
8 	2.90596184331818 	4.5102810375397e-17 	1.16282262710437 	0.0169438236042589 	4.13759813009072 	0.00301396468494257
8 	2.91442681151997 	4.5102810375397e-17 	1.16288071424381 	0.0166789052763516 	4.48079246080119 	0.0032129098766015
8 	2.922592641458 	4.5102810375397e-17 	1.16293663174534 	0.0164229638714344 	4.87077463040565 	0.00343892720101155
8 	2.93046990419394 	5.20417042793042e-17 	1.16299045134596 	0.0161750495327734 	5.31697702561833 	0.00369726331123224
8 	2.93806879722526 	5.20417042793042e-17 	1.16304224127534 	0.0159341020865342 	5.83152846583402 	0.00399462172851163
8 	2.94539915768638 	4.5102810375397e-17 	1.16309206243894 	0.0156989187719 	6.43025289466354 	0.00433968270582388
8 	2.95247047508334 	3.81639164714898e-17 	1.16313996407135 	0.0154681004322905 	7.13412573340267 	0.00474384910878903
8 	2.9592919035784 	3.46944695195361e-17 	1.16318597865737 	0.0152399601648814 	7.97144339757381 	0.00522233464064664
8 	2.96587227384055 	3.46944695195361e-17 	1.16323011580364 	0.0150123660229164 	8.98113353226973 	0.00579577985243523
8 	2.97222010447726 	3.46944695195361e-17 	1.16327235456332 	0.0147824659021846 	10.2179441625945 	0.00649269596201764
8 	2.97834361306218 	3.46944695195361e-17 	1.16331263346251 	0.0145461969028593 	11.7608322594885 	0.00735322693633399
8 	2.98425072677325 	3.12250225675825e-17 	1.16335083677985 	0.0142973887723386 	13.7270117803366 	0.00843503161233271
8 	2.98994909265477 	2.42861286636753e-17 	1.16338677280743 	0.0140260765639227 	16.2964656021124 	0.00982256402936968
8 	2.99544608751689 	2.42861286636753e-17 	1.16342013603435 	0.0137152130747396 	19.7568406699804 	0.011641600008416
8 	3.00074882748522 	2.77555756156289e-17 	1.16345045953757 	0.0133340063675952 	24.5906180021459 	0.0140807419553145
8 	3.00586417721304 	2.77555756156289e-17 	1.16347707236252 	0.0128238412634774 	31.6569641450463 	0.0174164693624526
8 	3.01079875876789 	2.77555756156289e-17 	1.16349870091714 	0.0120674816908628 	42.6072377930283 	0.0220061044719736
8 	3.01555896020418 	2.42861286636753e-17 	1.16351149817538 	0.0108228259154337 	60.9578909795148 	0.0280475629898342
8 	3.02015094383281 	2.42861286636753e-17 	1.16350809850136 	0.00862443832711075 	95.4651131601276 	0.0342301883741151
8 	3.02458065419861 	2.77555756156289e-17 	1.1634908909556 	0.00503775708166037 	176.114370735069 	0.0341296817552283
8 	3.02885382577582 	2.08166817117217e-17 	1.16347743365346 	0.0014595198881392 	491.411643064362 	0.0206793564204207
8 	3.03297599039165 	1.21430643318376e-17 	1.16347427419915 	0.000155688890733103 	1722.0022145867 	0.00584828000229115
