8 	0.451351328258348 	2.42861286636753e-17 	1.32025408069006 	0.000567349621775027 	1076.21982852352 	0.0113250399366256
8 	0.457856884620643 	2.08166817117217e-17 	1.31981670903226 	0.00417609257664288 	327.898097128418 	0.034698761120025
8 	0.464597494115106 	2.42861286636753e-17 	1.31928133123675 	0.0117345828470601 	97.4265848482439 	0.041943686413897
8 	0.471581531993148 	2.42861286636753e-17 	1.3186092151274 	0.0187765630048487 	46.2019201289269 	0.035600634233748
8 	0.478817663648092 	2.08166817117217e-17 	1.31776434319027 	0.0241662357093789 	28.3035369616331 	0.0289087026787541
8 	0.486314854098318 	2.25514051876985e-17 	1.31677559780321 	0.0284004911326758 	19.9806788311798 	0.0242043523259372
8 	0.49408237774287 	1.56125112837913e-17 	1.31566968415979 	0.0319155994034059 	15.3089869664241 	0.0209165679094019
8 	0.502129828395036 	1.04083408558608e-17 	1.31445725595576 	0.0349602018402383 	12.3533240429579 	0.0185206791403416
8 	0.510467129599323 	2.08166817117217e-17 	1.3131432323193 	0.0376783740993857 	10.3284811768455 	0.0167047474866924
8 	0.519104545237329 	2.08166817117217e-17 	1.31173110116921 	0.0401590357507983 	8.86152155203395 	0.015284375453466
8 	0.528052690427915 	1.73472347597681e-17 	1.310223329282 	0.0424603298567 	7.75402696893733 	0.0141456134707429
8 	0.537322542727032 	2.08166817117217e-17 	1.30862155318567 	0.044622075071496 	6.89114522342207 	0.013214633563305
8 	0.546925453632554 	1.90819582357449e-17 	1.30692686321012 	0.0466725277582074 	6.20195312536611 	0.0124415491420198
8 	0.556873160399407 	1.47451495458029e-17 	1.30514000071449 	0.048632275538404 	5.64036032369688 	0.0117914176845357
8 	0.567177798170198 	1.82145964977565e-17 	1.30326148123326 	0.0505165955858295 	5.17515285158909 	0.0112390042352488
8 	0.577851912426569 	2.25514051876985e-17 	1.30129168624757 	0.0523369454431454 	4.78446081847202 	0.0107656019449574
8 	0.58890847176635 	2.51534904016637e-17 	1.29923094197006 	0.0541019403478837 	4.45251941460041 	0.0103570279879515
8 	0.600360881011604 	2.94902990916057e-17 	1.29707959350214 	0.0558180146596597 	4.16768806697638 	0.0100023188008322
8 	0.612222994652597 	3.12250225675825e-17 	1.29483807861178 	0.0574898829641238 	3.92119364107733 	0.0096928570194069
8 	0.624509130632625 	2.86229373536173e-17 	1.29250699776621 	0.0591208714671366 	3.70630774634241 	0.00942177412463591
8 	0.637234084478675 	2.73218947466347e-17 	1.29008719137411 	0.0607131646956267 	3.51779378808664 	0.00918353500215249
8 	0.65041314378278 	2.77555756156289e-17 	1.2875799448221 	0.0622679977028034 	3.35152709732294 	0.00897364664585703
8 	0.664062103038993 	2.86229373536173e-17 	1.28498743026983 	0.0637858160906848 	3.20422950356587 	0.00878845506217725
8 	0.678197278840822 	2.57226965422186e-17 	1.28231182649428 	0.0652664193251069 	3.07328159887555 	0.00862500696102513
8 	0.692835525444093 	2.52890156732244e-17 	1.27953649620506 	0.0667085203475608 	2.95675352724356 	0.00848134241009161
8 	0.707994250700163 	2.77555756156289e-17 	1.27665390149495 	0.0681108150790974 	2.85303758477963 	0.00835586254451226
8 	0.723691432364531 	2.42861286636753e-17 	1.27376094534824 	0.0694743111642616 	2.7604408566126 	0.0082465107650811
8 	0.739945634786034 	2.08166817117217e-17 	1.27098329374259 	0.0708086625898897 	2.67709611791935 	0.00815112746993261
8 	0.756776025981913 	2.08166817117217e-17 	1.26829299386239 	0.0721292345114055 	2.60104316272517 	0.00806725738326807
8 	0.77420239510431 	2.08166817117217e-17 	1.26554501130205 	0.0734408286938175 	2.5312259602621 	0.00799346734188248
8 	0.792245170304006 	2.42861286636753e-17 	1.26267433723394 	0.0747392387649588 	2.46714015379348 	0.00792882729089399
8 	0.810925436997537 	2.42861286636753e-17 	1.2596800496638 	0.0760178652048174 	2.40835956082495 	0.007872329887299
8 	0.830264956544259 	2.42861286636753e-17 	1.25656679627545 	0.0772688450576154 	2.35446204094298 	0.00782280139337194
8 	0.850286185340416 	2.08166817117217e-17 	1.2533373768649 	0.0784832864367486 	2.30501958972346 	0.00777889589482307
8 	0.871012294337907 	1.04083408558608e-17 	1.24999616033463 	0.0796514368239542 	2.25959448110625 	0.00773909704078275
8 	0.892467188996067 	3.46944695195361e-18 	1.24654949604758 	0.0807627918283283 	2.21773968287698 	0.00770172672938912
8 	0.914675529675727 	-3.46944695195361e-18 	1.24300534876454 	0.0818061844714479 	2.17900142100715 	0.00766496051018988
8 	0.93766275248567 	-3.46944695195361e-18 	1.23937320805205 	0.082769881109592 	2.14292245337308 	0.00762684877832727
8.00000000000001 	0.961455090592773 	0 	1.23566408869315 	0.0836416907312913 	2.10904562175975 	0.00758534356692314
8.00000000000001 	0.986079596008391 	3.46944695195361e-18 	1.2318905100506 	0.0844090910625586 	2.07691751057314 	0.00753833096221894
8.00000000000001 	1.01156416186494 	0 	1.22806644840366 	0.0850593744182567 	2.04609209330034 	0.00748366902337985
8.00000000000001 	1.03793754519838 	-6.93889390390723e-18 	1.22420726335595 	0.0855798146889592 	2.01613430612874 	0.00741923089252625
8.00000000000001 	1.06522939025402 	-6.93889390390723e-18 	1.22032958958521 	0.0859578551309055 	1.98662354308712 	0.00734295257901106
8.00000000000001 	1.09347025233532 	-1.73472347597681e-17 	1.21645118305571 	0.0861813157729339 	1.9571571365293 	0.00725288484088142
8.00000000000001 	1.12269162221744 	-2.42861286636753e-17 	1.21259071687167 	0.0862386196228339 	1.9273539673999 	0.0071472486640888
8 	1.15292595115017 	-1.38777878078145e-17 	1.20876752423925 	0.0861190382771853 	1.89685844358694 	0.00702449402073424
8 	1.18420667647759 	-3.46944695195361e-18 	1.20500128592031 	0.0858129597077284 	1.86534518772813 	0.00688336179494036
8.00000000000001 	1.20932909530118 	-6.07153216591882e-18 	1.20211359204954 	0.0854442048193778 	1.83990384459607 	0.00676040070265758
8.00000000000001 	1.2257861591868 	-1.64798730217797e-17 	1.20028899741527 	0.0851454297570229 	1.8231404336453 	0.00667539710513686
8 	1.25005321751835 	-1.38777878078145e-17 	1.1977101424832 	0.0846161045877337 	1.79819940577864 	0.00654333179996239
8 	1.28469102414858 	-1.04083408558608e-17 	1.19422157409866 	0.0837151218458005 	1.76213882146076 	0.00634397832318354
8 	1.32051868198682 	-1.38777878078145e-17 	1.19086338423845 	0.0826066277644428 	1.72420009973165 	0.00612533922859097
8.00000000000001 	1.3575749113027 	-1.73472347597681e-17 	1.18765022070841 	0.0812908835966361 	1.68430591544452 	0.00588843996413069
8.00000000000001 	1.39589958614844 	-1.73472347597681e-17 	1.18459259459355 	0.079770745281015 	1.64244248918464 	0.00563482524559062
8.00000000000001 	1.43553376564931 	-1.21430643318376e-17 	1.18169403341798 	0.0780520530197209 	1.59866397814024 	0.00536655908587126
8.00000000000001 	1.4765197263157 	-1.38777878078145e-17 	1.17895086587425 	0.0761455485853108 	1.55313221661462 	0.0050864231698648
8.00000000000001 	1.51890099544909 	-1.38777878078145e-17 	1.17636319850985 	0.0740717076633971 	1.50623699516854 	0.00479850541165147
8.00000000000001 	1.56272238572048 	-8.67361737988404e-18 	1.17396149778795 	0.0718659104589656 	1.45876211961744 	0.00450881549519077
8.00000000000001 	1.60803003100718 	-1.38777878078145e-17 	1.17181334151044 	0.0695702159283125 	1.41179333571857 	0.00422414302678878
8.00000000000001 	1.65487142358089 	-1.38777878078145e-17 	1.16993749429819 	0.0671935119016369 	1.3658907542137 	0.00394705225246763
8.00000000000001 	1.70329545274807 	-6.93889390390723e-18 	1.16833431473401 	0.0647216518642061 	1.3209565848068 	0.00367662765425145
8 	1.75335244505158 	-8.45677694538693e-18 	1.16693376703798 	0.0621573281641807 	1.27709880165144 	0.00341354423303436
8 	1.80509420615116 	-4.98732999343332e-18 	1.16566713281634 	0.0595166663593928 	1.23476060679443 	0.00316007376226967
8.00000000000001 	1.85857406450892 	-3.46944695195361e-18 	1.16453669292928 	0.0568191671495616 	1.19457182202841 	0.00291885848816333
8.00000000000001 	1.91384691701537 	-6.93889390390723e-18 	1.16355537924224 	0.0540882923278841 	1.15715487291214 	0.00269173493679067
8.00000000000001 	1.97096927670054 	-1.21430643318376e-17 	1.16270550228583 	0.0513748023909716 	1.12360796697474 	0.00248267356829681
8 	2.02024009608346 	1.38777878078145e-17 	1.16212662527219 	0.0490927095638923 	1.09878282109863 	0.00231985108490284
8 	2.06000503604194 	2.08166817117217e-17 	1.16168078843954 	0.0472630487845696 	1.08124711382711 	0.00219764271817643
8 	2.09836474743796 	2.08166817117217e-17 	1.16133855050164 	0.0455716034560142 	1.06732604953405 	0.00209166929918453
8 	2.13536888877258 	1.38777878078145e-17 	1.16106826315825 	0.0439821921750395 	1.05652391705639 	0.001998248892455
8 	2.17106536369585 	2.08166817117217e-17 	1.16085187500507 	0.0424878336335997 	1.04868862230264 	0.00191600600070663
8 	2.20550038302044 	2.77555756156289e-17 	1.16068244982787 	0.0410816183803171 	1.04368688735795 	0.00184372610960032
8 	2.23871852454378 	2.77555756156289e-17 	1.1605539250371 	0.0397568520491009 	1.04140482478544 	0.00178034296522742
8 	2.27076279075613 	2.77555756156289e-17 	1.16046068887978 	0.0385071717272948 	1.04174870085315 	0.0017249267877579
8 	2.30167466450941 	2.77555756156289e-17 	1.16039790117151 	0.037326613091998 	1.04464516211896 	0.00167667124715449
8 	2.33149416271872 	2.77555756156289e-17 	1.16036139228244 	0.0362096435765777 	1.05004115566898 	0.00163488043706506
8 	2.36025988816626 	2.08166817117217e-17 	1.16034754083575 	0.0351511723703194 	1.05790371056555 	0.00159895655421958
8 	2.38800907947441 	1.38777878078145e-17 	1.16035318944392 	0.0341465445782592 	1.06821968666286 	0.00156838861495523
8 	2.41477765931295 	1.38777878078145e-17 	1.16037557720549 	0.0331915249857687 	1.08099556918954 	0.00154274235874554
8 	2.44060028090272 	1.38777878078145e-17 	1.16041228280775 	0.03228227541838 	1.09625736762949 	0.00152165137586379
8 	2.46551037287586 	1.73472347597681e-17 	1.16046117695602 	0.0314153285445219 	1.11405066257775 	0.0015048094268861
8 	2.48954018255081 	2.08166817117217e-17 	1.16052038265575 	0.0305875601104282 	1.13444083423923 	0.00149196388389185
8 	2.512720817678 	1.73472347597681e-17 	1.16058824194234 	0.0297961609620461 	1.15751350015485 	0.0014829102061842
8 	2.53508228671037 	1.38777878078145e-17 	1.16066328792247 	0.0290386097441292 	1.18337518676476 	0.00147748735941808
8 	2.55665353765073 	1.38777878078145e-17 	1.16074422120473 	0.0283126468300631 	1.21215425899843 	0.00147557409112807
8 	2.57746249552636 	1.38777878078145e-17 	1.16082988996036 	0.0276162497949875 	1.24400213386989 	0.00147708598452617
8 	2.59753609853934 	1.38777878078145e-17 	1.16091927298837 	0.026947610574622 	1.2790948078815 	0.00148197322403291
8 	2.61690033293929 	1.38777878078145e-17 	1.16101146526888 	0.0263051143340779 	1.31763473389838 	0.00149021901910562
8 	2.63558026666389 	1.73472347597681e-17 	1.16110566557943 	0.0256873199907941 	1.35985309120996 	0.00150183864691031
8 	2.65360008179049 	2.42861286636753e-17 	1.16120116582328 	0.025092942283185 	1.40601250309081 	0.00151687908904519
8 	2.67098310584102 	2.77555756156289e-17 	1.16129734178029 	0.0245208352440544 	1.45641026985639 	0.00153541925297183
8 	2.68775184198056 	2.42861286636753e-17 	1.16139364504173 	0.0239699769198418 	1.51138220298207 	0.00155757078541428
8 	2.70392799814879 	2.08166817117217e-17 	1.16148959593162 	0.023439455169488 	1.57130716842215 	0.00158347950335735
8 	2.71953251516198 	2.42861286636753e-17 	1.16158477725201 	0.0229284543774996 	1.63661247634514 	0.00161332748928539
8 	2.73458559382185 	2.08166817117217e-17 	1.16167882871737 	0.0224362429229154 	1.70778029213179 	0.00164733592213355
8 	2.74910672106653 	2.08166817117217e-17 	1.16177144196639 	0.0219621612582348 	1.78535529241501 	0.00168576874565671
7.99999999999999 	2.76311469519732 	2.77555756156289e-17 	1.16186235605851 	0.0215056104692921 	1.8699538538779 	0.00172893731365981
8 	2.776627650214 	2.77555756156289e-17 	1.16195135337747 	0.0210660412081216 	1.96227514647776 	0.00177720619960069
8 	2.78966307929018 	3.12250225675825e-17 	1.16203825587702 	0.0206429429156604 	2.06311461354091 	0.00183100042027268
8 	2.80223785741904 	3.81639164714898e-17 	1.16212292161336 	0.0202358332791439 	2.17338046810781 	0.00189081440476621
8 	2.81436826325886 	4.16333634234434e-17 	1.16220524151713 	0.0198442478993743 	2.29411403090677 	0.00195722314778085
8 	2.82607000020647 	3.46944695195361e-17 	1.16228513636358 	0.0194677301742211 	2.42651499843392 	0.00203089613041906
8 	2.83735821672613 	2.77555756156289e-17 	1.16236255390405 	0.0191058214344842 	2.57197308533227 	0.00211261478557505
8 	2.8482475259599 	2.77555756156289e-17 	1.16243746612507 	0.0187580513932964 	2.7321079701517 	0.00220329454839129
8 	2.85875202464506 	2.77555756156289e-17 	1.16250986660334 	0.0184239289858988 	2.90882014074014 	0.00230401289291332
8 	2.86888531136304 	2.77555756156289e-17 	1.16257976792556 	0.0181029336765029 	3.10435616321551 	0.00241604525464799
8 	2.87866050414343 	2.77555756156289e-17 	1.1626471991422 	0.0177945072843758 	3.32139320368021 	0.00254091143512414
8 	2.88809025744591 	3.46944695195361e-17 	1.16271220322298 	0.0174980463202834 	3.56314949211137 	0.00268043606839186
8 	2.89718677854204 	4.16333634234434e-17 	1.1627748344802 	0.0172128947099638 	3.83353010681862 	0.00283682813665926
8 	2.90596184331818 	4.5102810375397e-17 	1.16283515592259 	0.0169383365878671 	4.13732140408735 	0.00301278656225909
8 	2.91442681151997 	4.5102810375397e-17 	1.16289323649807 	0.016673588531678 	4.48045330392927 	0.00321164190264602
8 	2.922592641458 	4.5102810375397e-17 	1.16294914817697 	0.0164177901091194 	4.87035757722082 	0.00343754865180987
8 	2.93046990419394 	5.20417042793042e-17 	1.16300296281674 	0.0161699908072427 	5.31646409584948 	0.00369574943744324
8 	2.93806879722526 	5.20417042793042e-17 	1.16305474873431 	0.0159291301037328 	5.83089880798089 	0.00399294285572976
8 	2.94539915768638 	4.5102810375397e-17 	1.16310456688669 	0.0156940052404874 	6.42948235948749 	0.00433780305094753
8 	2.95247047508334 	3.81639164714898e-17 	1.16315246652259 	0.0154632174614454 	7.13318635923552 	0.00474172519272596
8 	2.9592919035784 	3.46944695195361e-17 	1.16319848010193 	0.0152350807173315 	7.97030278824033 	0.00521991311867468
8 	2.96587227384055 	3.46944695195361e-17 	1.16324261716656 	0.0150074644410634 	8.97975411053807 	0.00579299449027316
8 	2.97222010447726 	3.46944695195361e-17 	1.16328485666442 	0.0147775185397942 	10.216282290108 	0.00648946333320886
8 	2.97834361306218 	3.46944695195361e-17 	1.16332513697606 	0.0145411829169286 	11.758837230777 	0.00734944015729405
8 	2.98425072677325 	3.12250225675825e-17 	1.16336334219443 	0.0142922911627333 	13.72462472118 	0.00843055096899801
8 	2.98994909265477 	2.42861286636753e-17 	1.16339928038646 	0.0140208835985444 	16.2936183021455 	0.00981720247700186
8 	2.99544608751689 	2.42861286636753e-17 	1.16343264578266 	0.013709920323558 	19.753454223884 	0.0116350997757035
8 	3.00074882748522 	2.77555756156289e-17 	1.16346297118596 	0.0133286197631692 	24.5866003186266 	0.0140727347663352
8 	3.00586417721304 	2.77555756156289e-17 	1.16348958531244 	0.0128183822514528 	31.6522020358964 	0.0174064047151423
8 	3.01079875876789 	2.77555756156289e-17 	1.1635112139707 	0.01206199832564 	42.6015672311981 	0.021993115603086
8 	3.01555896020418 	2.42861286636753e-17 	1.16352400993345 	0.0108174277608143 	60.9509894113162 	0.0280302498256772
8 	3.02015094383281 	2.42861286636753e-17 	1.16352061210103 	0.00861944173770805 	95.4562183865615 	0.0342067770897932
8 	3.02458065419861 	2.77555756156289e-17 	1.16350341587741 	0.00503410175079027 	176.102594765489 	0.0341018924036639
8 	3.02885382577582 	2.08166817117217e-17 	1.16348997171687 	0.00145828450945474 	491.40093512934 	0.0206606626112477
8 	3.03297599039165 	1.21430643318376e-17 	1.16348681838171 	0.000155549848164238 	1722.00124343353 	0.00584295026224385
