/*--------------------------------*- C++ -*----------------------------------*\
  =========                 |
  \\      /  F ield         | OpenFOAM: The Open Source CFD Toolbox
   \\    /   O peration     | Website:  https://openfoam.org
    \\  /    A nd           | Version:  7
     \\/     M anipulation  |
\*---------------------------------------------------------------------------*/
FoamFile
{
    version     2.0;
    format      ascii;
    class       volScalarField;
    location    "10000";
    object      omega;
}
// * * * * * * * * * * * * * * * * * * * * * * * * * * * * * * * * * * * * * //

dimensions      [0 0 -1 0 0 0 0];

internalField   nonuniform List<scalar> 
15600
(
1974.60613735576
1972.648325243
1984.42791022013
2055.78059759582
2222.67690004102
2356.686868098
2378.42128442444
2300.00018532342
2153.97031116953
1966.45861756929
1762.78479607635
1583.64547894744
1435.67966376577
1312.2349065017
1208.29531934702
1120.03744959636
1041.43040276847
963.351277377799
885.918292649371
810.58135114486
738.629427726828
671.777660481123
614.580438156229
568.667823075621
533.493089366932
508.868650769501
494.93483283514
492.061840314983
493.651539705996
493.651534338166
493.651534338173
493.651534338186
493.651534338214
493.651534338152
493.651534338164
493.651534338193
493.651534338173
493.651534338179
493.651534338187
493.651534338166
493.651534338199
493.651534338138
493.651534338171
493.651534338152
493.651534338165
493.651534338172
493.651534338187
493.651534338193
493.6515343382
493.651534338166
493.651534338172
493.651534338165
493.6515343382
493.651534338165
493.651534338146
493.651534338186
493.65153433818
493.651534338194
493.651534338178
493.651534338193
493.6515343382
493.651534338185
493.651534338193
493.651534338201
493.65153433813
493.651534338152
493.651534338177
493.651534338139
493.651534338172
493.65153433818
493.651534338191
493.651534338182
493.65153433818
493.651534338178
493.651534338194
493.651534338178
493.651534338152
493.651534338152
493.651534338159
493.651534338193
493.651534338166
493.651534338166
493.651534338171
493.651534338213
493.651534338157
493.651534338194
493.65153433817
493.651534338157
493.651534338187
493.651534338165
493.651534338165
493.651539706002
492.061840314982
494.934832835202
508.868650769232
533.493089366357
568.667823075228
614.580438156834
671.777660481449
738.629427726959
810.581351143299
885.918292648864
963.351277377646
1041.43040276902
1120.03744959597
1208.2953193011
1312.23490651725
1435.67966381516
1583.6454790092
1762.78479592733
1966.45861764716
2153.97031128258
2300.00018510395
2378.42128451691
2356.68686814436
2222.67690004416
2055.78059756207
1984.42791022399
1972.64832524326
1974.60613735531
346.627786112289
349.295552699129
368.473914144508
368.32515306534
379.016804954225
395.453617665319
399.572529971666
387.193843649394
363.143023031146
331.884146057102
297.777258638594
267.625961125417
242.753756957327
222.155946231523
204.874704833255
190.238103014585
177.13302983701
164.067409558256
151.005264936213
138.157612915582
125.772398044959
114.299131805584
104.453794020802
96.4890321558839
90.4725054638205
86.3308479108202
84.3806706699947
86.58051332552
88.4381018550896
88.1027190051775
87.7877709744384
87.543164328729
87.3468109704765
87.1826617869337
87.0418298751855
86.9113740557551
86.7853634457217
86.6581851174075
86.527011203655
86.3898046581917
86.245574962393
86.0939008429045
85.9349285796286
85.7692447524747
85.5973526221838
85.4212468258628
85.2616876670591
85.1095595323602
84.9682298345261
84.8239679388512
84.6782157790394
84.5319283322915
84.3860125236995
84.2413222177949
84.0986481653336
83.9587159199876
83.8221813331259
83.6896306285136
83.5615801920533
83.4384779773537
83.3207055804731
83.2085788331793
83.1023517447051
83.0022151270889
82.9083071218939
82.8207126407197
82.7394905097665
82.6646776211162
82.5963128469086
82.5344255677357
82.4789795308302
82.4298599926977
82.3869054535183
82.3498967311519
82.3186396465029
82.2929363716683
82.272658014337
82.2577157451581
82.2479527464047
82.2432747223108
82.2434799751112
82.248591086983
82.2584931313056
82.2736277931602
82.2940964677205
82.3211192122623
82.3551211417282
82.3987159506316
82.4530008069399
82.5195161843089
82.6099262899198
82.8000728551984
82.8024368066871
83.0807576793459
85.3680533642048
89.367610351943
95.1685979027674
102.737036421856
112.167695142314
123.12952479943
134.984731947285
147.458469511551
160.413764699443
173.652269612947
187.324904101259
202.719282098213
220.779921644587
242.171155749288
267.685248051354
298.300296592234
332.801805610937
365.355255457976
391.516133014024
406.848378696751
407.52877922216
394.949503203576
394.78485607683
396.327547726129
385.5760846104
357.227061437466
139.39300986282
134.093569429987
132.032450720367
125.938367064256
125.346987683182
129.222087541572
130.240862507357
126.788153819684
119.214980827123
109.11023801578
98.0746348813286
88.2995389896425
80.111216870908
73.258637778389
67.5156738051239
62.6666086036942
58.3665330269273
54.0948393174392
49.8368618900751
45.6754653239124
41.7013603332769
38.0352187079131
34.9430344134451
32.5281732277877
30.6884127082401
29.6622823230521
29.5395265806876
29.5410979330422
29.6514100179119
29.6405395379439
29.6328387346055
29.6111277270167
29.5799979766811
29.5421335358738
29.4986248154487
29.4504374911503
29.3983467722896
29.3430547408945
29.2851645245707
29.2252054634274
29.1636392189105
29.1008871868809
29.0374501841706
28.9742982904362
28.9127620724318
28.8434369474718
28.7370802187597
28.6319155500933
28.5324934091358
28.4362103293485
28.3432924529418
28.2537414964855
28.1675705713754
28.0847936236775
28.0054203425308
27.9294555107488
27.8568968316352
27.7877352497435
27.7219546500125
27.6595321188819
27.6004380013652
27.544634830633
27.4920775165106
27.4427106453248
27.3964720963718
27.3532917379894
27.3131065396926
27.2758637969355
27.2415354951019
27.2101050682888
27.1815279134174
27.1557233273218
27.1325901367625
27.1119995594113
27.0938425803355
27.078011773266
27.0644487644855
27.0531183623529
27.0439439328442
27.0368847980345
27.0318341739277
27.0288191966286
27.0277854762466
27.0290262233607
27.0326351346854
27.0394433467777
27.0498057755883
27.0656495862527
27.0877704608221
27.1165900475396
27.1637431531895
27.1821990932341
27.1362643811876
27.2807302822419
27.9720112852385
29.1819539411832
30.9768124868269
33.31131937539
36.2177277536506
39.5719200672678
43.2317589454022
47.1118737802038
51.2020720092153
55.4673083767171
60.0505787654118
65.2487547219954
71.3221813466413
78.4941695440358
86.9770186298605
96.9437679339115
107.793654508972
118.143103840014
126.422509368473
130.807811332534
130.642743332087
128.559889633123
130.652550825967
138.320242679883
146.554406381139
146.488182641525
80.4822019793326
75.999412504488
78.2495228668797
77.630974225856
64.3845592693487
58.6134648802228
58.3569456958107
57.3361066184193
54.1862456449343
49.744088927169
44.905045425276
40.6292234307933
37.0294189598699
34.0691418404825
31.6207227554222
29.543953892074
27.6325616808685
25.6630213584555
23.6414654057831
21.6395852873812
19.7530967279858
18.0843575179069
16.7428790874844
15.7775654123029
15.2110665638092
15.1224276512872
15.4010789635469
15.5356107036334
15.2773777216822
14.967280417244
14.7831233502998
14.661307594787
14.5808889449476
14.5267394357821
14.4896214579456
14.463687869474
14.4452231146368
14.4317575962524
14.4216366100146
14.4137103782398
14.4071712399369
14.4014597013734
14.3961925800169
14.3905973820653
14.3794944252633
14.35890477059
14.3307436987834
14.3037451676137
14.2781088713965
14.2531074646477
14.2287326180476
14.2049112381604
14.1815969019387
14.1587592461913
14.1363789256861
14.1144449076535
14.0929515211411
14.0718969884282
14.0512819054633
14.0311081615029
14.0113778383586
13.9920916937651
13.9732481800456
13.954841351434
13.9368617676328
13.9192959785826
13.9021342756225
13.8853737302981
13.8690262433691
13.8531102460882
13.8376291409709
13.8225669402583
13.8078940826529
13.793563555485
13.7795333134887
13.7657576327234
13.7522127648265
13.7388812375105
13.7257212607483
13.7127040199677
13.6997642382269
13.6868952445444
13.6740460505266
13.6613292516084
13.6487546801446
13.6366999398427
13.6252944642762
13.6155030801019
13.6076396386718
13.6025601132154
13.602487084465
13.5873733625808
13.5510037940909
13.5864218573038
13.8876127143195
14.4297161789832
15.237647495678
16.2833109953143
17.5715791726944
19.0440383310075
20.6519464620098
22.3562706372637
24.1543523831041
26.0364772075632
28.0845074601082
30.3952213217051
33.0611073771051
36.1754776754901
39.8127505345955
43.9829098866457
48.3266787046152
52.3860554366419
55.5155569651305
56.9110941708839
56.4939870251176
55.7880513385334
58.6196194795651
65.3273768896731
77.0802850758248
83.296862156602
51.8651086879108
49.6898912262265
54.6070037575233
61.7313711713528
47.4581716098087
32.4017692213994
30.8417060800784
30.8151909882166
29.4120002251893
27.1792359805004
24.7508343145245
22.618913552906
20.8322776650391
19.4167149496232
18.2496449166318
17.1980858413919
16.1178084088916
14.9333802434275
13.6952857716297
12.4953246543092
11.4275175787327
10.5578821537805
9.91855201713842
9.52989757626998
9.41528732600541
9.57623106430095
9.87552752673928
9.99393363361592
9.70254162614697
9.39253399121238
9.23795726377296
9.15517191023742
9.11373848487409
9.0964866835192
9.09364345857147
9.09949345750829
9.11055735960971
9.12462628642973
9.14027260938334
9.15653830377305
9.17276138960697
9.18843635279863
9.20293255047429
9.21443040200557
9.22120349875566
9.22364307350768
9.22314174334651
9.22238606025434
9.22124106155872
9.21948881423705
9.21714495973137
9.2142007520788
9.2106624143621
9.20654466925753
9.201867794994
9.19665589366117
9.19093511961202
9.18473272958934
9.17807612522274
9.17099212725201
9.16350620916797
9.15564151688088
9.14741815185498
9.13885202646851
9.1299554528162
9.1207374865202
9.11120892293411
9.10138483055317
9.09128905440121
9.08094785010226
9.0703763981716
9.05957659638147
9.04854010631737
9.03724687070061
9.02567809998346
9.01381209172018
9.00163957274346
8.98915226135861
8.97632620982472
8.96314321303453
8.94956510309397
8.9355870208278
8.92118408491597
8.90642750018398
8.89134031132151
8.87616728728351
8.86102672857384
8.84655931399381
8.83301930279757
8.82120568653293
8.81180282217442
8.79957919703586
8.77524160625063
8.77466300638583
8.93800490823283
9.2487657537212
9.71491652876285
10.318029468743
11.0544123767664
11.8899148161516
12.800549045841
13.76421940737
14.777625277115
15.8363827137025
16.987731803573
18.2735442386113
19.7323024878598
21.4072108894459
23.3294091212764
25.4813070012092
27.6516871291854
29.6427721435082
31.1610199780991
31.8311756814869
31.6457422747557
31.3963634249354
33.3505577397726
37.4984203325379
45.6939390819244
51.7046920771365
35.7151677293442
35.0127050079656
39.8300287332499
51.5626434016174
43.0407838757221
21.7331296489111
17.8688423447965
18.2626333423242
17.7263768036419
16.5822884353486
15.3277997031075
14.2322030654426
13.3247925640387
12.6277499670767
12.0126047434983
11.3640941619201
10.6117448326291
9.77938316361104
8.94440917295466
8.18689663036469
7.56500048290636
7.10316903846919
6.80148371741272
6.66744136803193
6.71008519523474
6.90347937303401
7.1346225243144
7.20696477817668
6.98384860799477
6.76473829890218
6.66820861052622
6.62455884781208
6.60997932184239
6.61199983620372
6.62347398804166
6.64035680391211
6.66017883423998
6.68139808802887
6.7030228271284
6.72439162473749
6.7450312873975
6.76451161592212
6.78218816774338
6.79692395255564
6.8086802415043
6.81781740018042
6.82517237244132
6.83177687121643
6.83752598795693
6.84235490855185
6.846290175107
6.84934793433639
6.85155269758947
6.85293341965806
6.85352167209753
6.85335054347522
6.85245354159964
6.85086399059089
6.8486144148964
6.84573604559843
6.84225827808385
6.83820800718746
6.8336091386326
6.82848197852992
6.822843816381
6.81670966879124
6.81009591194231
6.8030222315938
6.79551407555561
6.78759723769738
6.77928844423252
6.77059434529156
6.76151371640709
6.75203733345776
6.74215681872136
6.73186259597975
6.7211539162471
6.71002966878624
6.69847814820096
6.6864915170562
6.6740516858822
6.66116524617024
6.64783393888843
6.63412934548215
6.62010709972449
6.60598335402434
6.59191921598693
6.57845798026538
6.56592211417122
6.55514306242863
6.54671996969943
6.54205270277489
6.52819496718473
6.51638134991357
6.61574862137476
6.81939982554793
7.12917509648355
7.53185546858828
8.02109410444694
8.57374855975328
9.17526053067175
9.81158206035344
10.4794205394632
11.1765307260779
11.9335948540129
12.7734985952711
13.7146874705133
14.7796410044398
15.9836043485557
17.3066270049998
18.6140927157395
19.8002869015087
20.710786253618
21.1427570572688
21.0895846833809
21.0011996784001
22.3207741262739
25.0110413844882
30.1492609626365
34.5356149342275
26.1086155254365
26.0927055046741
29.8312562390591
42.8893431550615
41.4255938758081
18.2972402593468
11.2149834538241
11.4989790462298
11.432219816696
10.8929838010475
10.2816306224908
9.74667113918479
9.30272978201213
8.95366724845149
8.58162546176376
8.11358165730137
7.54717851889918
6.94957574204642
6.38752871694527
5.91062816253721
5.54629156355924
5.29955779618587
5.16360598366114
5.14126233800003
5.23231007295664
5.40542077773609
5.57669757359683
5.62240374321857
5.46583805457322
5.31837319658683
5.25903960930129
5.2366631174102
5.23446955743378
5.24381392075507
5.25955885070696
5.27883348203311
5.2998496343375
5.32149539735972
5.34304876387971
5.36402345716983
5.38405520267028
5.40278543144425
5.41964712641514
5.43427493306418
5.44677468709109
5.45743277853995
5.46675314425308
5.47519422725228
5.48269485911083
5.48924149089117
5.49486145372005
5.49957777854815
5.50341867149971
5.5064150094588
5.50859907315936
5.51000377976866
5.51066193039761
5.51060578035035
5.50986659228923
5.50847425684364
5.50645686887914
5.50384023563682
5.50064753326423
5.49689899578284
5.49261251493933
5.48780453992334
5.48249287507761
5.47669812476134
5.47044489811503
5.4637570486987
5.45665069833724
5.44913395237413
5.44120877812281
5.43287161126675
5.4241199615368
5.4149514646851
5.4053707635223
5.39538182678572
5.38498123779982
5.37416906506881
5.36294110053348
5.35131419522824
5.33930959661355
5.32700559393164
5.31448384527316
5.30195453576397
5.28961679751766
5.27797320507922
5.26741493763283
5.25879944310755
5.25288461312122
5.25384287494644
5.24746503585429
5.23307802540003
5.29763362703937
5.44179821651933
5.66538279646663
5.9583117880281
6.3135622961845
6.71399930763779
7.14959600303832
7.61072853892248
8.09442684225744
8.59959994689803
9.14808037872575
9.75468492337526
10.4293294930799
11.1848737050202
12.0297440701604
12.9462401526209
13.8417724482009
14.6506036954294
15.2806064946388
15.6065324931711
15.6158615469621
15.587914654762
16.5043629981038
18.4003836929628
21.798409102701
24.8548651342263
20.0994768700414
20.356441554531
22.9894664704771
35.3351089337996
39.3018725189642
18.5849571463381
8.03490821754616
7.61859977516921
7.7751688177745
7.57680954433729
7.32515076862419
7.1015649558872
6.90543788007155
6.72755175799296
6.47658802755693
6.12261996956844
5.70009487610589
5.27774673593768
4.9008965216019
4.59732280125135
4.37999175771994
4.24839106780394
4.19582857059852
4.22259373388527
4.32360686069809
4.46975483898716
4.59999635557455
4.63266470229107
4.52271099497236
4.4211321293667
4.38344454720552
4.37236534897062
4.37590514979262
4.38786535133376
4.40441069361172
4.42340913657641
4.44350159386568
4.46384265543241
4.48387549176104
4.50321931962296
4.52157662611216
4.53865018624937
4.55406452494431
4.56773469435921
4.57976398835492
4.590369521638
4.59986226337833
4.60846754839778
4.61615300607062
4.62292342353546
4.6288039890619
4.63381854245867
4.63799447304189
4.64136103552741
4.64394839676399
4.64578705789342
4.64690729418238
4.64733881641482
4.64711041282487
4.64624962883816
4.64478241029192
4.64273271419016
4.64012225884883
4.63697038989165
4.63329468438218
4.62911189229308
4.62444016020662
4.61930006874605
4.61371503578884
4.60770707465894
4.60129145923085
4.59447691813026
4.58726735241974
4.5796628267802
4.57166476523165
4.56327559480301
4.55450357176422
4.54535622683763
4.5358358513132
4.5259482659674
4.5156988590366
4.50511218482896
4.49422287422134
4.48311498294071
4.47188779221613
4.46074905373758
4.44992398507863
4.43988821991679
4.43108091989479
4.42436399592824
4.42065714507984
4.42514179916352
4.42381559321975
4.41002532697423
4.45374308060919
4.56090201163367
4.73094880249324
4.95591938299386
5.22886039284534
5.53636402562781
5.87092470579454
6.22557901177185
6.5977354151032
6.98700578488298
7.409914231835
7.87722481970624
8.39480797921501
8.970571240331
9.60961609140423
10.2970791778879
10.9657827288989
11.5704074452551
12.0501670707397
12.3187780462871
12.3581124697513
12.3522955523227
13.0066252892076
14.4136354549406
16.8271674918226
19.0231371674807
16.1257194401536
16.4743845150167
18.2682704275456
29.0032459614244
36.3419839976647
20.3283729451082
7.00035867072046
5.38628652713981
5.56710307267556
5.55092300033076
5.49082213897786
5.43485033074127
5.36960763080094
5.28020021068948
5.10371295356642
4.83807116725335
4.52814978326414
4.2301981957941
3.97396253897364
3.77628475308824
3.6445020899789
3.57698881146645
3.56799729467634
3.61602939637234
3.71384855811661
3.83654307259426
3.93918616911726
3.96503834756455
3.88613947812839
3.81400455412726
3.78952186129953
3.78493079467683
3.79136480345457
3.80419828754562
3.82046243258701
3.83850845597354
3.85726212547243
3.87605353195069
3.89443490591438
3.91209585019713
3.92878839772967
3.94427252309433
3.95833436916513
3.97096783687761
3.98226323489488
3.9923820065383
4.00152101813948
4.00979985311659
4.01720323967685
4.02374247606353
4.02944015178729
4.03431901890671
4.0384044973969
4.04172349033398
4.04430362858142
4.04617281252951
4.04735876909317
4.04788876486098
4.04778929777107
4.04708580922423
4.04580236750814
4.04396134314771
4.04158322053529
4.03868657197296
4.03528865293247
4.03140633222959
4.02705789518986
4.02226375853762
4.01704633202974
4.01142620087541
4.00541798405107
3.99903087394706
3.99227025042253
3.98513886169355
3.977641038975
3.969782666265
3.96157456642384
3.9530268245123
3.94414577813268
3.93494145020356
3.9254259916916
3.91562951585827
3.90559571879287
3.89541246626307
3.88519022778933
3.87513394845693
3.86548414848717
3.85669353578791
3.84922968418106
3.8439414516804
3.841867036688
3.84836683767922
3.85035941051161
3.83828743494317
3.86876917643512
3.95113648734556
4.08517021220058
4.26444815262856
4.4823883252911
4.72810800783142
4.99565226150666
5.27975850538873
5.57819312043327
5.89102951366578
6.23132265414402
6.60751592574347
7.0234105173058
7.48417125376866
7.99314442643594
8.53810559783285
9.06857528360797
9.55095116225338
9.9415222115491
10.1750034714028
10.2284152293926
10.2277004878873
10.7051643748947
11.7819595266946
13.5907085177026
15.2416338596649
13.3558713196249
13.7209714339892
14.9559224094181
23.7622724926245
33.1695697554927
22.3062276568694
7.3892805313755
4.18604201753293
4.20243517444949
4.27317185342178
4.30730547755541
4.33601822094245
4.33835537349922
4.29775399185579
4.17321986453962
3.97597190728504
3.74899608684795
3.53601733525632
3.35790316536928
3.22633694916938
3.14630676317178
3.11606127660834
3.13050401610861
3.18691881338741
3.27743563038064
3.38134605317956
3.46484219465852
3.48675566348556
3.42904730163142
3.37670698309254
3.36088401317769
3.36040541196344
3.36850151360315
3.3816032417668
3.39734672752603
3.41441639358646
3.43193847334968
3.44936617129703
3.46632917322727
3.48256861662586
3.49787846316018
3.51206800266935
3.52502642212788
3.53676781239889
3.54736757086135
3.55694482953612
3.56562714706578
3.57348222865103
3.58050472009312
3.58670792241735
3.59211210263236
3.59673848821876
3.60061047398226
3.60375275528453
3.60619071058581
3.60795002532907
3.60905632571431
3.60953492300077
3.60941053413943
3.60870701185414
3.60744705274996
3.60565191432769
3.60334126661371
3.60053323224902
3.59724496350847
3.59349353762733
3.58929744098881
3.5846770302098
3.57965401013664
3.57424796279523
3.56847311954393
3.56233917009887
3.55585279560205
3.54901892611839
3.54184422559985
3.53433724053291
3.52651072241724
3.51837664620416
3.50994430281421
3.50122683453841
3.4922412582102
3.48302165866209
3.47361784187226
3.46411976139665
3.45464469333423
3.44539333258242
3.43661386834006
3.42873732013599
3.42224464496922
3.41795984849609
3.41699331283134
3.42448874284047
3.4285844683428
3.41852420836158
3.4402743334863
3.50516957756369
3.61359254004629
3.76031935161464
3.93926031895145
4.14135382692797
4.36167184683008
4.59609003915761
4.84269684343644
5.10188878319621
5.38431055208094
5.69693131447418
6.0424385447814
6.42440706246184
6.84523525177983
7.29503964439676
7.73503445841274
8.13886553212557
8.4724990025152
8.6822775179189
8.74095129796594
8.73655841683275
9.08957373886571
9.93078278635016
11.3368486060428
12.627844623687
11.3359621644591
11.6866946471658
12.5753602571639
19.4853702597033
29.9650446169028
23.761604551023
8.62795581230153
3.69194616397955
3.34694909564751
3.44124318589858
3.51731903091767
3.58501487145484
3.62106338717
3.60871833819999
3.52143575774452
3.37509070332654
3.20718814845543
3.0520302413569
2.92553119910188
2.83667869186835
2.78922741340381
2.78142924749889
2.80856993809627
2.86719583960067
2.94959389154474
3.03868017794769
3.10841501199584
3.12792872183308
3.08531460762272
3.04698973095574
3.03727335289595
3.03968292152527
3.04891047775793
3.06212830686635
3.07741357347788
3.09369146492188
3.11023644026446
3.12659284274295
3.14244879920297
3.15758554966095
3.17183193419346
3.18504182506652
3.19715994143945
3.20820463444917
3.21823731438499
3.22734572237307
3.23561426754445
3.24308367118523
3.24975430651157
3.25563976159406
3.26075843653159
3.26513011962216
3.26877647370565
3.27172038084482
3.27398542842623
3.27559559348082
3.27657492970995
3.27694733118312
3.27673626981142
3.27596453477704
3.2746539553232
3.27282514426841
3.27049737436408
3.26768865717285
3.26441629581155
3.2606977366691
3.2565518073865
3.25199897944136
3.24706056147948
3.24175550659091
3.23609791090204
3.23009804770871
3.22376382984968
3.2171020764977
3.21012143054457
3.20283260234327
3.19524987300149
3.18738666383238
3.17925447967322
3.17086882009847
3.16225026592919
3.15343572460907
3.14447907497839
3.13547114490815
3.12653268976924
3.11785919308893
3.10970097625893
3.10246795130907
3.09664348070348
3.09301922321203
3.09273815503543
3.10054605072038
3.10588519880799
3.09778005102839
3.11362876376162
3.16576033079384
3.25521878391624
3.37775379316401
3.52780800923463
3.69769549308009
3.88320896048742
4.08101516955225
4.28949162090859
4.50927532878334
4.74925975964924
5.01539627519469
5.30975273870307
5.63496367443669
5.99294668620539
6.37590479826209
6.7536323805405
7.1044166664442
7.39965396233914
7.5919638079931
7.65030567978265
7.63703369310319
7.89938035721971
8.56637576028529
9.68730764755385
10.7274060620218
9.80725462385462
10.1316831895181
10.8145167647138
16.0549755967646
26.7899878992316
24.5533405834645
10.2724221653666
3.7544078392475
2.82147445024139
2.8814911003829
2.97196177065446
3.05453737144609
3.1062976199546
3.11071412895017
3.050053816225
2.94078438632639
2.81476644246943
2.69959317341945
2.60819278242976
2.54789720833042
2.52164420819577
2.52767147966468
2.56151746547674
2.61935887365229
2.69400957108943
2.77135526574622
2.83092153583171
2.84899471193952
2.81762321365694
2.78971139577892
2.78460222688353
2.78925011800211
2.79940168798844
2.81276917081535
2.82776280934028
2.84348865382755
2.85933523372936
2.8749174035637
2.88996954515816
2.90430549572912
2.91778301422787
2.93029430824672
2.94181057763002
2.95235044807061
2.96196323059537
2.97071365034334
2.97865869190955
2.9858243941669
2.99221445459313
2.99784217131021
3.00272454292359
3.00688018580852
3.01032941712313
3.01309374628781
3.0151954434407
3.01665727073815
3.01750220797604
3.01775322841269
3.01743304541786
3.01656385556489
3.01516706906825
3.01326306901534
3.01087110104526
3.00800937235744
3.00469557644367
3.0009477000281
2.99678507002892
2.99222846286025
2.98729907638052
2.98201555408053
2.97639207756435
2.97043960023277
2.96416724440588
2.95758353649065
2.9506988692073
2.94352579323928
2.9360798664421
2.92837565647624
2.92042636890735
2.9122493154856
2.90386772473937
2.8953204916609
2.88666419935142
2.87798952466023
2.86941845344106
2.8611405414059
2.85340431205353
2.84659902580963
2.8412025349853
2.83796955047082
2.83804417731496
2.84570361793361
2.85166992365133
2.8453172623225
2.85711604767468
2.89967614965539
2.97465941451844
3.07862993821161
3.20656426472515
3.35185321655275
3.51082028180589
3.68070180455772
3.86013873515375
4.04995804233068
4.25773639889495
4.48867342225561
4.74448588779259
5.02725935421399
5.33873250256374
5.67300272577307
6.00636392040211
6.32002149826249
6.58812738966158
6.76632507603434
6.82029603092985
6.79468772217075
6.98936357831174
7.52423432892569
8.43400485234934
9.29032120992254
8.61500326841541
8.90952883854062
9.47175094247393
13.3411992146452
23.7182898310509
24.6706754600929
12.1763083947054
4.29039118901173
2.54148570629772
2.49585723450204
2.58327218823953
2.66811178217683
2.72591524887629
2.74030387616447
2.69863904786958
2.61632865073623
2.52036481771862
2.43349897574097
2.36666423656616
2.32602730669606
2.31390803996897
2.32851800413725
2.36560877572585
2.4212462771453
2.48891367926486
2.55689115366887
2.60880239346066
2.62610096892352
2.60345529391687
2.58362088871067
2.58220560429172
2.58874495465454
2.59976904382634
2.6133954533474
2.62829311938408
2.64370831808508
2.65912021906703
2.67420021267468
2.68872067006472
2.70252283286056
2.71548898774022
2.72754052272783
2.73866180732687
2.74887013432453
2.75820482634879
2.76671385531711
2.77443649010818
2.78139050371161
2.78758156359843
2.79302258353407
2.79772958925515
2.80172034584779
2.80501421619462
2.80763175917732
2.80959436650152
2.81092403216443
2.81164310699906
2.81177408176753
2.81133933774959
2.81036088940406
2.80886011714633
2.80685753418199
2.80437268063007
2.80142422926644
2.798030479934
2.79421012439242
2.78998314593488
2.7853708134176
2.78039447268535
2.77507273150161
2.76942004840146
2.76344815198454
2.75716737595725
2.75058783730345
2.74372152591786
2.73658261950334
2.72918779316976
2.72155255639046
2.71369145193641
2.70562320756898
2.69737304049855
2.68898125614901
2.68050608842273
2.67203737239626
2.66369671942483
2.65566726213386
2.64819294707319
2.64164284506746
2.63648361413061
2.63343031570608
2.63360412256067
2.64080128651691
2.64694712089538
2.64209082225585
2.65108418116774
2.68632473294404
2.7499989647711
2.839364078284
2.94991294463485
3.07590306903893
3.21406549724903
3.36206222919436
3.5187798397003
3.68520376188714
3.86789226322615
4.07145822514986
4.29741949452335
4.54756455696084
4.82367080293267
5.12159037107824
5.42261933276841
5.70958046525673
5.95752505215483
6.12308489679759
6.16948936899423
6.12918045887688
6.27282245242312
6.70557924503772
7.45374787927367
8.16984990803791
7.66225504588312
7.9270736300384
8.41683202435285
11.2165303707455
20.8178745527849
24.1980817110226
14.1146023735682
5.10464137011153
2.4794145899199
2.23201064861425
2.29894896647975
2.37880712825107
2.43722280394686
2.45739050360479
2.42934991721856
2.36684254026162
2.29284986586151
2.22651499658063
2.17731587755558
2.1505282064117
2.1479816367024
2.16787233257876
2.20616775386324
2.25899384304052
2.32052850563017
2.38098047998705
2.42706816831548
2.44408540702049
2.42846492001179
2.41514133198378
2.41684895462155
2.4251010563097
2.43702415807136
2.45104756554034
2.46604559132545
2.48137602810941
2.49659192874948
2.51141133544746
2.5256387162223
2.53913885676634
2.55181467797585
2.56360909628859
2.57451330942662
2.58454279338055
2.59372889861938
2.60210748465185
2.6097062457234
2.61653819761396
2.62261024148997
2.62793501921041
2.63252796851392
2.6364063288146
2.63958887768308
2.64209561059979
2.64394743644674
2.64516597908479
2.64577335409179
2.64579195562273
2.6452442070854
2.64415230018769
2.64253792581763
2.64042204208809
2.63782476575085
2.63476547461017
2.63126327007191
2.62733770440158
2.62300956872037
2.61830080485718
2.61323314264442
2.6078253934953
2.6020924617381
2.59604694312923
2.58970039947983
2.5830644636334
2.57615262005053
2.56898053314216
2.56156589777121
2.55392502594956
2.54607353650965
2.53803128168633
2.52982500495728
2.5214959615087
2.51310327333919
2.50473545686757
2.49651258513728
2.48861104203532
2.48126823641651
2.47483353752195
2.46975834746051
2.46671663457338
2.46678882633811
2.47330785800928
2.47930390381777
2.47567858652223
2.48271721799025
2.51227554389941
2.56695132601129
2.6445961259842
2.74119186311875
2.85170944588008
2.9732050542878
3.10367271434157
3.24223380089431
3.39001202123617
3.55275791460817
3.73460518053876
3.93696327574516
4.16149895447084
4.41020302370319
4.68057576031681
4.95773015426316
5.22481788518706
5.44981180802226
5.594666499718
5.63821409199783
5.58980138635096
5.69515259109205
6.04775499460956
6.66918495321481
7.27483790734126
6.88565494496525
7.12265842908981
7.56507531388546
9.56430554150085
18.1177888073763
23.2506242973488
15.8993290163097
6.20292290063492
2.64874675012323
2.06705389992618
2.08822813688151
2.15737619386173
2.21296571799213
2.23615752079298
2.21796260239805
2.17022160831326
2.1126141629192
2.06150096803971
2.02523026512212
2.00836733125124
2.01235123958689
2.03538796881692
2.07367815579026
2.12351385213064
2.17973674339237
2.23411693230897
2.27576006619728
2.29287620473648
2.28309757563608
2.27520476769306
2.27967358941991
2.28955756027403
2.3024463001868
2.31701339422993
2.33229898346987
2.34775135069169
2.36298500327657
2.37775737330328
2.39190063117406
2.40530009680317
2.41787582808613
2.42958675358099
2.44042781518912
2.45041273509611
2.45956668907407
2.46791685940808
2.47548333868317
2.48227639362417
2.48830379068347
2.49357809933797
2.49811451574345
2.50193006769647
2.50504328874172
2.507473963612
2.50924287538771