/*--------------------------------*- C++ -*----------------------------------*\
  =========                 |
  \\      /  F ield         | OpenFOAM: The Open Source CFD Toolbox
   \\    /   O peration     | Website:  https://openfoam.org
    \\  /    A nd           | Version:  7
     \\/     M anipulation  |
\*---------------------------------------------------------------------------*/
FoamFile
{
    version     2.0;
    format      ascii;
    class       volScalarField;
    location    "10000";
    object      p;
}
// * * * * * * * * * * * * * * * * * * * * * * * * * * * * * * * * * * * * * //

dimensions      [0 2 -2 0 0 0 0];

internalField   nonuniform List<scalar> 
15600
(
0.930721500938301
0.940861735090912
0.94066381607667
0.970242372144332
0.988489832895998
0.996754678478013
1.00008865588559
1.00282586216014
1.00436403805398
1.00559665875058
1.00633581785391
1.00689353839821
1.00731082897648
1.0076152684299
1.00786678018939
1.00809685353041
1.00839612782118
1.00877481214642
1.00926097032404
1.00985168908503
1.01051628787096
1.01114737779764
1.01170855404539
1.01218334870182
1.0125024921567
1.01261429948566
1.01255121440765
1.01160143906227
1.01079352470183
1.01060449989743
1.01074896811985
1.01131534969424
1.01223174209207
1.01347915802725
1.01501954475764
1.01682987228109
1.01888640799075
1.02117099578282
1.02366680416166
1.02635922580412
1.02923461790522
1.03228020751437
1.03548364201392
1.03883279620747
1.0423156359767
1.04592003516809
1.04963342180453
1.05344335447583
1.05733776449031
1.06130462836527
1.06533213709244
1.06940877755202
1.07352337588412
1.07766514704558
1.08182375389215
1.08598935556481
1.09015265711113
1.09430494701286
1.09843812869243
1.10254474158921
1.10661797276823
1.11065166266684
1.11464029736071
1.11857900274527
1.122463514268
1.12629016142596
1.13005580878482
1.13375782699787
1.13739403183099
1.14096265071186
1.14446235322273
1.14789226412695
1.15125191457963
1.15454124325758
1.15776046123732
1.1609100501889
1.1639906413999
1.16700297757209
1.16994802005155
1.1728267835079
1.17564057992845
1.17839060478204
1.18107846760575
1.18370532503147
1.18627314803448
1.18878301156128
1.19123769451621
1.19363872519866
1.1959900470035
1.19829631433503
1.20055935539393
1.20280021489452
1.20495514046354
1.20724431219623
1.20950722025725
1.21194187787954
1.21442373191138
1.2170162187807
1.21962033841663
1.22220946098072
1.22453713305438
1.22642437303528
1.22755418874009
1.22772266462922
1.22663486990959
1.22450470415437
1.22125345272396
1.21657401170154
1.21008667423597
1.20086672012085
1.18733096180313
1.16550598051505
1.1330475111161
1.08761959016926
1.02213502738306
0.941166598638007
0.854715924455276
0.843091486740943
0.865490625335482
0.911959076684633
0.930727447420621
0.940904671652601
0.940687376136272
0.969943217407814
0.988196309784563
0.996577448340733
0.999983803882099
1.0027516753095
1.00432045442844
1.00557132595749
1.00632778135593
1.00689495112204
1.00731996875306
1.00763018993242
1.00788522085334
1.00811548833842
1.00841164380204
1.00878560375318
1.00926594508371
1.00985153259384
1.01051458243295
1.01114796458425
1.01171230710101
1.0121906119242
1.0125126488343
1.01262582137127
1.01256351799887
1.01160628087182
1.01080049071465
1.01061482940539
1.01076076987122
1.01132897860938
1.01224691221789
1.01349566710346
1.01503710143037
1.01684822334777
1.0189053024162
1.02119020673058
1.023686118347
1.02637844608564
1.02925355997206
1.03229869987943
1.03550152567552
1.03884992522391
1.04233187712917
1.04593526281606
1.04964751606281
1.05345621217581
1.05734930624649
1.06131478689245
1.06534085608137
1.06941601398974
1.07352909965572
1.07766934043269
1.08182641093245
1.08599048127772
1.09015226664315
1.094303064706
1.09843478710396
1.10253998048869
1.10661183810309
1.11064420555754
1.11463157306453
1.11856906974085
1.12245243333601
1.12627799502867
1.13004262056827
1.1337436815658
1.13737899459148
1.14094678708196
1.14444572742501
1.14787493841298
1.15123394851171
1.15452269377007
1.15774138286787
1.16089049568527
1.16397066267492
1.16698262516146
1.16992734318211
1.17280582949781
1.17561939531174
1.17836923532378
1.18105696141026
1.18368373238225
1.18625152583994
1.18876142218039
1.19121621010306
1.19361743112477
1.19596902945903
1.19827569572356
1.20053943693733
1.20278045464601
1.20493909728989
1.20724294022314
1.20952231594599
1.2119742949192
1.21447270503058
1.21707983930552
1.21969396312039
1.22228313335577
1.22459631816237
1.22645293716865
1.22753704427278
1.22764775637309
1.22650313317686
1.22432053142384
1.22100716110849
1.21624876533658
1.20965049841439
1.200260470888
1.18643996985202
1.16423884598702
1.13139705291217
1.08558009940565
1.02002982631895
0.939769474448908
0.855076458273419
0.843889277852461
0.865790642200583
0.911998579679794
0.930759343378313
0.941048501555086
0.940906754442526
0.969777906938241
0.987948645568342
0.996425724117016
0.999889326468335
1.00268309066944
1.00427911321213
1.00554694970555
1.00631960258765
1.00689590742485
1.00732835059632
1.00764413242424
1.00790262645637
1.00813316248887
1.00842617912992
1.00879498448533
1.00926854110384
1.00984719817905
1.01050591619742
1.0111385326978
1.01170336098621
1.0121829949878
1.01250687802561
1.01262247442244
1.01256290017856
1.01160136219958
1.0108052464389
1.01062384623831
1.01077121248997
1.01134137331746
1.0122607082728
1.01351056512778
1.01505267115414
1.01686413911291
1.01892125056595
1.02120592311911
1.0237013620777
1.02639300254618
1.02926723336595
1.0323113125548
1.03551291638893
1.03885994815968
1.04234039401173
1.04594214560588
1.04965269728672
1.05345965725007
1.05735095669128
1.06131459789525
1.06533880362689
1.06941208929475
1.07352330911857
1.07766170467214
1.08181696373891
1.08597926837671
1.09013934441932
1.09428849885615
1.09841865126756
1.10252235489373
1.10659280816622
1.11062386059881
1.11461000491936
1.11854637171622
1.12242869906649
1.1262533181071
1.13001709427225
1.13371739916524
1.13735204960556
1.14091927193443
1.1444177312447
1.1478465459659
1.15120523905308
1.1544937418937
1.15771225921334
1.16086126878792
1.16394140123924
1.16695339695913
1.1698982158839
1.17277686889494
1.17559066932015
1.17834081266231
1.18102892157943
1.18365616256686
1.18622453737819
1.18873514312954
1.19119080680751
1.19359311083552
1.19594602623768
1.19825436753772
1.20052030272188
1.20276327165857
1.20492380254492
1.20723874481748
1.20953085978076
1.21199682514535
1.21450776247259
1.21712536935162
1.21974435187224
1.22232777803352
1.22462075368442
1.22644272260884
1.22747945468747
1.22753461235598
1.2263379105344
1.22410659881091
1.22073313698749
1.21589708052848
1.20918906331714
1.1996323001961
1.18555139394395
1.16304264747422
1.12993599692615
1.08395308535728
1.01875667954465
0.939868512282066
0.857373482514825
0.846061920941544
0.866622418469521
0.912118435057018
0.93085427575031
0.941343215923734
0.941438802214715
0.969824162547555
0.987712806584135
0.996292137200501
0.999804745221163
1.00261849929348
1.00423918468517
1.00552296008361
1.00631146218965
1.00689685150632
1.00733674787395
1.00765804194308
1.00791995153482
1.00815067605022
1.00843996547201
1.00880222839063
1.00926656262571
1.00983453011132
1.01048372425091
1.01111022737256
1.01167077171741
1.01214773267313
1.01247133410548
1.01258887051252
1.01253076949614
1.01157609229077
1.01080482471771
1.01063011573383
1.01078188859087
1.0113559470521
1.0122775045618
1.01352863156362
1.0150710712677
1.01688222102835
1.018938454023
1.02122180555265
1.02371554279215
1.02640515749829
1.02927707890039
1.03231860128302
1.03551743506514
1.03886152719043
1.04233888259411
1.04593737995528
1.04964461841479
1.05344828463796
1.05733627430732
1.06129661209082
1.06531755177153
1.06938763343914
1.07349573498127
1.07763111949591
1.08178349403049
1.0859430573888
1.09010054963169
1.09424728942
1.0983752054926
1.10247685783535
1.10654544920384
1.11057483125112
1.11455949654485
1.11849457382149
1.12237579756469
1.12619949497753
1.12996252765087
1.1336622645618
1.13729652106676
1.14086352012966
1.14436191941317
1.14779082761344
1.15114975593036
1.15443862549116
1.15765763273381
1.16080725118049
1.16388811233695
1.16690095664439
1.1698467452271
1.17272648783483
1.1755415033957
1.17829299300432
1.18098260274642
1.183611522475
1.1861818061119
1.18869459933472
1.19115281259682
1.19355813371559
1.19591460541528
1.19822729484361
1.20049832593733
1.20274763096762
1.20491087463562
1.20723123974591
1.20952956578243
1.21200242877145
1.21451757898569
1.21713626033073
1.21974858415887
1.22231341891148
1.22457370963487
1.22635045500285
1.22733205403659
1.22732842018101
1.22608071328044
1.22380103402731
1.22036482274421
1.21544549953352
1.2086184467581
1.19888270128226
1.1845396962554
1.16175473000128
1.12844987407513
1.08243617595439
1.01785951762116
0.940820027755785
0.861023215801312
0.849585074156722
0.868280541720689
0.912437474049085
0.931048397616219
0.941790787754492
0.942259081906228
0.97012200140412
0.987494486816438
0.996158097161055
0.999724247816563
1.00255500363087
1.0041987993029
1.00549812534418
1.00630291895987
1.00689782964942
1.00734567438416
1.00767283150092
1.00793840660242
1.00816929607014
1.00845379902177
1.0088072315851
1.00925868462589
1.00981089112624
1.01044431821562
1.01105893312209
1.01161041831842
1.01208084544041
1.01240211091934
1.01252026911157
1.01246192273471
1.01153418748512
1.01080545606694
1.01064088016152
1.01080079257072
1.0113801820193
1.01230391079341
1.01355549915908
1.01509699383671
1.01690629014553
1.01895994392814
1.02124017410768
1.02373034396097
1.02641602686651
1.02928370894628
1.03232073520264
1.03551487119785
1.03885410449197
1.04232646442146
1.04591988943614
1.04962206745012
1.05342072062392
1.05730375004988
1.06125921313379
1.06527539787046
1.06934087426178
1.07344454831932
1.07757570829896
1.08172408333338
1.08587989091752
1.09003388645309
1.09417740058509
1.09830237078417
1.10240136268131
1.10646758161643
1.11049487908642
1.1144777446378
1.11841130190273
1.12229127815396
1.12611399314715
1.1298763014821
1.1335755672806
1.13720960316769
1.14077662729531
1.14427528715512
1.14770467786055
1.15106429422623
1.154354042945
1.15757410896863
1.16072496040431
1.16380723102937
1.16682166359463
1.16976922316879
1.17265092096228
1.17546808666462
1.17822193374694
1.18091414590198
1.18354595427172
1.18611949514586
1.18863599784314
1.19109850599516
1.19350888056255
1.19587129463435
1.19819121050581
1.20047050163974
1.20273075826626
1.20489835078054
1.2072185167363
1.20951542499548
1.21198706694037
1.2144965306187
1.21710521501532
1.21969746448952
1.22222839877821
1.22444013912238
1.22615686187138
1.22707048754504
1.22699896899447
1.22569519422975
1.22336225525653
1.21985537016958
1.21484049699527
1.20787582651824
1.19793430729635
1.18329951953613
1.16022101429258
1.12671441359088
1.08069620573222
1.01682479185206
0.941823494257642
0.864985993319369
0.853676190953713
0.870513150030902
0.912988988567062
0.931338481846334
0.942348294613513
0.943248243919448
0.970623947119739
0.987355662072931
0.996024330152432
0.999642877705745
1.00249179546874
1.00415741819235
1.00547203417288
1.00629374932337
1.00689882649859
1.00735535818943
1.00768896053822
1.0079586129347
1.0081896536778
1.00846810949707
1.00881029182567
1.00924540929127
1.00977753816401
1.01039033935951
1.0109890554643
1.0115285967487
1.01199040366541
1.01230820880071
1.01242581551345
1.01236573260289
1.01148176131669
1.01080576034872
1.01065385052989
1.01082468544894
1.01140994931527
1.01233554970616
1.01358680511833
1.0151263106844
1.01693257854748
1.01898240840756
1.0212582398236
1.02374355294886
1.02642401611752
1.02928618169543
1.03231745547689
1.03550566367767
1.03883884120865
1.04230506597168
1.04589233848416
1.04958840904514
1.0533810363284
1.05725814729271
1.06120783460412
1.0652184205362
1.06927850620469
1.07337702661516
1.07750329569312
1.08164706485294
1.08579857011349
1.08994858173136
1.09408844154333
1.09821009469189
1.10230611115972
1.10636969736147
1.11039470296289
1.11437561263007
1.11830754294953
1.12218621190282
1.12600792984026
1.12976954251231
1.13346840782767
1.1371023347992
1.14066953588788
1.14416864724638
1.14759874888699
1.15095931736615
1.15425024344014
1.15747169923577
1.16062414725164
1.16370822428245
1.16672467688103
1.16967447630062
1.17255863733561
1.17537850425707
1.17813530707944
1.18083077513071
1.18346618963493
1.1860437846684
1.18856488797079
1.1910327008259
1.19344927785897
1.19581895803995
1.19814762075844
1.20043685281176
1.20270995455751
1.20488284956279
1.20720065087842
1.20949055560742
1.21195541841498
1.21445213306936
1.21704268703106
1.2196049438022
1.22209067087848
1.2242416473359
1.22588645415853
1.22672112247113
1.22657268000835
1.22520519565684
1.222810897261
1.21922287522141
1.21409823529373
1.20697623332272
1.19680234269715
1.18184567259116
1.15844896838825
1.12472593563272
1.07871497666151
1.01560517556379
0.942733706308828
0.868945034897917
0.857918247066364
0.873025112554737
0.913723920002832
0.931712648086702
0.942980846808263
0.944328966453579
0.971265683899672
0.987310511969059
0.995907557102054
0.999556649198218
1.00242709657306
1.00411427465239
1.00544429142211
1.00628383537529
1.00689998159081
1.00736620007634
1.00770704304511
1.0079812959435
1.00821252113512
1.008483813113
1.00881279487556
1.00922900170277
1.00973807791772
1.01032704665897
1.01090724957233
1.01143294269032
1.0118845701748
1.01219750676296
1.01231316755561
1.01225039538002
1.01142001602067
1.01080040771223
1.01066344306118
1.01084780917684
1.01143968530856
1.0123674738215
1.01361828145354
1.01515547680445
1.01695824973712
1.01900370332528
1.02127452706907
1.02375434083689
1.02642892152566
1.02928489939048
1.03230975281241
1.03549137164488
1.03881784834782
1.04227731561582
1.0458578299885
1.04954720062523
1.05333322924889
1.05720387764624
1.06114727417263
1.06515177623597
1.06920601718112
1.07329896191234
1.07741995067761
1.08155875763281
1.08570563754765
1.08985137557047
1.09398732457894
1.09810543707545
1.10219828694154
1.10625908108299
1.11028166665944
1.1142605226694
1.11819075783054
1.12206807987971
1.12588878885722
1.12964972063878
1.13334822611868
1.13698211003395
1.14054957844989
1.14404925565107
1.14748020601203
1.15084188709921
1.15413417330853
1.15735722320324
1.16051149362169
1.16359762430165
1.1666163660765
1.16956869763673
1.1724556384365
1.17527854939593
1.17803867877215
1.18073780464066
1.18337726046777
1.18595938268342
1.18848559770974
1.19095927108406
1.19338263466422
1.1957602093799
1.19809820166915
1.20039798624512
1.20268392554985
1.20486248946204
1.20717851342152
1.2094578198576
1.21191238139425
1.21439151103155
1.21695813701133
1.21948344157684
1.22191614323545
1.2239977847483
1.22556219992514
1.22630992833194
1.22607753956564
1.22463920950899
1.22217527198681
1.21849594292754
1.21324848575921
1.20595194452872
1.19552418505951
1.1802238993351
1.15649330125187
1.12254989501217
1.07657121083355
1.0142908517851
0.943622577506586
0.872897760844972
0.862213929835805
0.875693690009712
0.914604579134075
0.932161218479254
0.94367198640623
0.945455034469012
0.971980592421011
0.987346998290391
0.99579257032934
0.999471860704671
1.00235778208099
1.00406827442158
1.00541454810955
1.00627328113587
1.00690170718859
1.00737884450076
1.00772785375236
1.0080072293488
1.00823863270885
1.00850178962964
1.00881602107724
1.00921137812487
1.00969527849016
1.01025807367618
1.01081760329493
1.01132757251028
1.0117671926186
1.01207339262066
1.01218587665676
1.01212025466566
1.01134893511657
1.0107868654784
1.01066720179785
1.01086759887322
1.01146703416029
1.01239770176498
1.0136483218578
1.01518326498182
1.01698243159126
1.01902329211321
1.02128881322335
1.02376278071976
1.02643109529768
1.02928047966354
1.03229849370566
1.03547309776894
1.03879244653866
1.04224473036133
1.04581806428898
1.04950031649662
1.05327933770269
1.05714312961412
1.06107985714852
1.06507791436438
1.06912596820465
1.07321301468051
1.07732842131952
1.08146198580925
1.08560398226045
1.08974521115061
1.09387703668292
1.09799141887567
1.10208093555179
1.10613879404489
1.1101588388741
1.11413554314169
1.11806400744212
1.12193992887369
1.12575959679673
1.12951983661796
1.13321799175433
1.13685186218288
1.14041964697197
1.14391995831849
1.14735184486843
1.15071474495046
1.154008516661
1.15723330449848
1.16038955971889
1.1634779245951
1.16649915428473
1.1694542357692
1.17234419377484
1.17517040721211
1.17793414326782
1.18063722994668
1.1832810524559
1.18586805006944
1.1883997424424
1.19087965985014
1.1933101765684
1.1956960190574
1.19804356717404
1.20035409647008
1.20265222054719
1.20483660908056
1.20715218740861
1.20941830071021
1.21185981920608
1.21431737876596
1.2168552063981
1.21933779395151
1.2217111201332
1.2237165136485
1.22519371315622
1.22584806117953
1.22552589667327
1.22401025352691
1.22146877154778
1.21768858820438
1.21230642295832
1.20482014453858
1.19412061047221
1.17846085572182
1.15438818653521
1.12022970524762
1.074317939954
1.01294131353324
0.944539875622514
0.87686345278047
0.866536967724471
0.878465046813661
0.915599823876835
0.93267644495181
0.944412705022899
0.946581785563607
0.972714636284092
0.987483062704592
0.995636688425471
0.999406780514021
1.00228160404403
1.00401847778895
1.00538274693234
1.00626247436997
1.00690459419562
1.00739393727005
1.00775197075156
1.00803682208853
1.00826825260071
1.00852240630093
1.00882064918482
1.0091936609246
1.00965076069243
1.01018544388236
1.0107222535347
1.01121450631958
1.01164012326522
1.01193766393533
1.01204614648258
1.01197796535058
1.01126886459031
1.01076454639758
1.01066443479088
1.01088309382659
1.01149104769288
1.01242540463451
1.01367623902194
1.01520914994772
1.01700475845378
1.01904096706112
1.02130104317814
1.02376896572076
1.02643077424804
1.02927329869432
1.03228418758629
1.03545147821872
1.03876339124247
1.04220817987989
1.04577402111593
1.04944884350796
1.05322055090777
1.05707718807717
1.06100695762531
1.06499829174026
1.069039892137
1.07312078700723
1.07723037199823
1.08135846904728
1.08549537217315
1.08963189765137
1.09375942137953
1.09786991118336
1.10195594905181
1.10601074290866
1.11002813476257
1.1140025918907
1.1179292068407
1.12180366602211
1.12562224810142
1.12938176771715
1.1330795606062
1.13671342164502
1.14028154236224
1.14378252288196
1.14721539638584
1.15057958210557
1.15387492232861
1.15710154721612
1.16025990272968
1.16335063310472
1.16637449762212
1.16933249223415
1.17222564731232
1.17505536074036
1.17782291874897
1.18053019937092
1.18317863738924
1.18577077349151
1.18830820947199
1.19079464229121
1.19323254104017
1.19562686384338
1.19798397647428
1.20030521945751
1.20261457333182
1.20480473813818
1.20712141975565
1.20937229769337
1.21179847428983
1.21423092889615
1.21673558477728
1.21917031463255
1.22147870110311
1.22340184378517
1.22478590696939
1.22534123847861
1.22492402683787
1.22332482858096
1.22069794754393
1.21680754733537
1.21127928193641
1.20358910618182
1.19260190446691
1.17657031851979
1.15215233238794
1.11779064872735
1.07198674147921
1.01159007522679
0.945507942621942
0.880845837262864
0.870870360726193
0.88131049562443
0.916687567266271
0.933253463325593
0.945196547914725
0.947681693626525
0.973449299884575
0.98771573946714
0.99546783730725
0.999370836942504
1.00220173017535
1.00396448810718
1.00534911339602
1.00625189395994
1.00690913071273
1.00741184845633
1.00777958727463
1.00807008077774
1.00830130249118
1.008545747591
1.00882706171283
1.00917656884564
1.00960555676977
1.01011042240922
1.01062253977864
1.01109505920021
1.01150470739215
1.01179182016662
1.01189584734267
1.01182561430834
1.01118045989084
1.01073341657579
1.01065483432092
1.01089368763181
1.01151107740116
1.01244998088573
1.01370151031778
1.0152327131121
1.01702492015929
1.01905653018192
1.02131113072588
1.0237729211714
1.02642809409386
1.02926360068794
1.03226718450572
1.0354269652632
1.03873123505724
1.04216831503555
1.04572644741671
1.04939362291489
1.05315780111641
1.05700707164681
1.06092967587787
1.064914085373
1.0689490374959
1.07302359344613
1.07712717760896
1.08124963671733
1.08538128514579
1.08951295537584
1.09363603536307
1.09774250108102
1.10182493900716
1.10587655796133
1.10989119775601
1.11386332013585
1.11778800993422
1.12166094309598
1.12547838787946
1.12923714810617
1.13293455186719
1.13656838872146
1.14013684213061
1.14363850034581
1.14707238165145
1.15043788665948
1.15373484273681
1.15696336564264
1.16012389655771
1.16321708096375
1.16624368183626
1.16920470463331
1.17210118552414
1.1749345420385
1.1777060790682
1.18041772381587
1.18307095698439
1.18566841706053
1.18821177439226
1.19070489270875
1.19315027711138
1.19555315009588
1.19791964588979
1.20025139347255
1.20257079391629
1.20476646282865
1.20708591766384
1.2093199370792
1.21172885598027
1.21413304934054
1.21660057458543
1.21898282136233
1.22122134548615
1.22305697459324
1.22434270060664
1.22479398793306
1.22427682670017
1.22258790997403
1.21986771513607
1.21585777269403
1.2101722909049
1.20226477209236
1.19097552643297
1.1745626482491
1.14980072107815
1.11525322371845
1.0696025765315
1.01026366868868
0.946543431933512
0.884846687652004
0.875203167568539
0.884215390658579
0.917856104070413
0.933890142949916
0.946018570742402
0.948750734481444
0.974165451484824
0.988025090315902
0.995356831290386
0.999349028858552
1.00212807402744
1.00390684036525
1.00531394431101
1.00624188191491
1.00691553930259
1.00743264201766
1.00781062170411
1.00810682336277
1.00833761826675
1.00857184648536
1.00883554650285
1.00916063246328
1.00956040881197
1.01003392453892
1.01051946389892
1.01097027551879
1.01136210262066
1.01163720750564
1.0117365939346
1.01166493620885
1.01108444223899
1.01069360746248
1.01063822254303
1.01089892426232
1.01152661955991
1.01247094923814
1.01372371009104
1.01525360823698
1.01704265569205
1.01906981046248
1.02131899565456
1.0237746583835
1.02642315725916
1.02925157772812
1.03224776474279
1.03539992596892
1.03869643104431
1.04212567349989
1.0456759641746
1.04933535740906
1.05309186983778
1.05693363695123
1.0608489397903
1.06482629028539
1.06885446204935
1.07292254987628
1.07702000728904
1.08113670618849
1.08526298162716
1.08938968262815
1.09350820954732
1.09761054687442
1.10168928597034
1.10573763697012
1.10974943795412
1.11371914560958
1.11764183760311
1.12151317987132
1.12532943081538
1.12908738361416
1.13278435897733
1.13641814104697
1.13998690467451
1.14348922658478
1.14692411098804
1.15029094063565
1.1535895292205
1.15681997821161
1.15998272475638
1.16307841473452
1.16610781417236
1.16907193844919
1.17197182947912
1.17480892484492
1.17758454729362
1.18030067147786
1.18295881852473
1.18556172173447
1.18811110080486
1.19061098587279
1.19306385171867
1.19547522407667
1.19785076245569
1.20019266569855
1.20252077175098
1.20472146484993
1.20704538013663
1.20926124436338
1.21165130988002
1.21402440700664
1.2164511963342
1.21877677661648
1.22094106029831
1.22268454501197
1.22386734002934
1.22421005282537
1.22358832031849
1.22180357578271
1.21898211419446
1.21484335932344
1.20898981142946
1.200852157896
1.18924795375356
1.17244752914469
1.14734684112255
1.11263059838877
1.06717621519177
1.00897865136335
0.947660815640519
0.888868477267665
0.879528611323835
0.887171406542884
0.919099636222712
0.934586133763723
0.946874860678906
0.949798736856059
0.974830242936119
0.988401216765459
0.995345039455356
0.999292622273813
1.00206818646672
1.00384778599645
1.00527744929988
1.00623257446344
1.0069238167153
1.00745619681663
1.00784487762007
1.00814683417471
1.00837706089877
1.00860074691477
1.00884634693251
1.00914627400022
1.00951589859452
1.00995668082115
1.01041385513001
1.01084106098139
1.01121335126873
1.01147504307473
1.01156978191936
1.01149737915346
1.01098149577419
1.01064534012123
1.01061452846199
1.01089847209879
1.01153729052227
1.0124879284453
1.01374249443216
1.01527155140112
1.01705774834576
1.01908066402189
1.02132456869923
1.0237741841827
1.02641604674318
1.02923738832327
1.03222616164947
1.03537066865582
1.03865936207923
1.04208071207612
1.04562310139176
1.04927464872737
1.05302342802442
1.0568576211426
1.06076554947599
1.06473576605575
1.06875708108109
1.07281862328998
1.07690987552471
1.08102073504957
1.08514155778517
1.0892632095496
1.09337710340647
1.0974752327412
1.10155019424525
1.10559519987784
1.1096040865742
1.1135713065926
1.11749193116415
1.12136161687515
1.12517661306143
1.12893370263695
1.13263019942431
1.13626388216315
1.13983291650554
1.14333586811798
1.1467717281854
1.15013986260192
1.15344007296563
1.1566724467206
1.1598374179771
1.16293563203661
1.16596785712512
1.16893511887059
1.17183846470447
1.17467935245408
1.17745912139811
1.18017979119918
1.18284291776183
1.18545132350956
1.18800675616403
1.1905134117332
1.1929736614556
1.19539337996997
1.19777748851682
1.20012909004472
1.20246446194158
1.20466951520488
1.20699950181342
1.20919616109517
1.21156603889006
1.21390548153744
1.21628823726159
1.21855335447669
1.22063948910773
1.22228674282027
1.22336252331639
1.22359253165811
1.22286181341477
1.22097517381481
1.21804449337272
1.21376775937784
1.20773558969633
1.19935568646433
1.18742541453955
1.17023377389916
1.14479528297773
1.10992446647617
1.06471410086697
1.00774271715432
0.948872645649899
0.892913299729723
0.883841800045177
0.890172867531396
0.920414935984553
0.935342068100333
0.947762186441308
0.950839239665773
0.975411853213241
0.988847003962134
0.995436734720977
0.999159326273176
1.00202446870172
1.00379248687502
1.00523985137303
1.0062239498528
1.00693383752536
1.00748231695555
1.00788213851328
1.00818992617194
1.0084195379486
1.00863251003534
1.00885968277025
1.00913385733963
1.00947252472745
1.0098793286894
1.01030646035667
1.01070825802536
1.01105943451133
1.01130645927745
1.01139664750387
1.01132417274246
1.01087224745821
1.01058888726002
1.01058375528255
1.01089208620765
1.01154278909548
1.01250060374719
1.01375757269796
1.01528629791125
1.01707000816854
1.0190889620079
1.02132778481707
1.02377149945112
1.02640682989301
1.02922116650103
1.03220257596121
1.03533946152664
1.03862036390599
1.0420338339357
1.045568329206
1.04921203260251
1.05295307477669
1.05677968411247
1.06068022277558
1.06464328538034
1.06865771879471
1.07271268581453
1.07679769856584
1.08090267969268
1.08501800603717
1.08913456037664
1.09324376874561
1.09733763380412
1.10140875805904
1.10545035587603
1.1094562637359
1.11342093022857
1.1173394210425
1.12120738425089
1.1250210611404
1.12877722492639
1.13247318327304
1.13610670964016
1.13967595981037
1.14317948896332
1.14661627651496
1.14998567272397
1.15328746899064
1.1565217391339
1.15968891548879
1.16278964166213
1.16582468701415
1.16879508770003
1.17170189630569
1.17454659076631
1.17733052503244
1.18005576194647
1.18272388391218
1.18533779636719
1.18789925179247
1.19041261112918
1.1928800633141
1.19530788446895
1.19769997888668
1.20006073372142
1.20240187171746
1.20461045966921
1.20694798846839
1.20912457968419
1.21147315268766
1.2137766357526
1.216112344521
1.21831356238206
1.22031806646766
1.2218654898452
1.22283061114906
1.22294411084151
1.22210014506156
1.22010558452414
1.21705778037607
1.21263406046758
1.20641306325693
1.19777976335368
1.18551405601996
1.16792257158398
1.1421459445295
1.10723153247874
1.06243729253168
1.0066728232839
0.950188239152646
0.896982411461869
0.888138711083287
0.893215480488022
0.921799983853146
0.936159075640005
0.948677836924042
0.951883698255247
0.975891267510892
0.989305789563814
0.99560546047852
0.999001205559015
1.00199804863413
1.00374806647448
1.00520184854179
1.00621590577946
1.00694543038473
1.0075107922181
1.00792220815591
1.00823595633029
1.00846500027197
1.00866721507275
1.00887576695817
1.00912372186989
1.00943074963637
1.00980246617928
1.01019799587831
1.01057268857641
1.01090130521269
1.01113253390419
1.01121830955078
1.01114638330006
1.01075727163508
1.01052455433132
1.01054595810649
1.01087958408657
1.01154287339679
1.01250870725546
1.01376869174782
1.015297630331
1.01707926375881
1.0190945859799
1.02132858205348
1.02376660135219
1.02639556400764
1.02920303048943
1.03217718754975
1.03530654707243
1.03857974206365
1.04198540781036
1.04551207919382
1.04914800212832
1.05288136266493
1.05670043559157
1.06059362397572
1.06454956426448
1.06855713983379
1.07260554742299
1.07668432819433
1.08078343001156
1.08489325055634
1.08900468963927
1.09310918648151
1.09719875339027
1.10126599920247
1.10530414133493
1.10930701659547
1.1132690707836
1.11718536508283
1.12105154005325
1.12486383016117
1.12861899966609
1.13231435104533
1.13594765270149
1.13951704975423
1.14302108755752
1.14645873521255
1.14982932876352
1.15313265161771
1.15636876448457
1.15953809946934
1.16264129719982
1.16567912688155
1.16865263548426
1.17156288011698
1.17441135839608
1.17719943743152
1.17992922014604
1.18260230641935
1.1852216778
1.18778906652168
1.19030899720072
1.19278339366962
1.19521899250316
1.19761839256186
1.19998768251677
1.20233305306973
1.2045442118102
1.20689057031432
1.20904637127096
1.21137270344508
1.21363816337536
1.21592408662685
1.21805832071063
1.21997811820205
1.22142256157651
1.22227376223557
1.22226721614687
1.22130585645147
1.21919740237151
1.21602466913574
1.21144519509442
1.20502577436959
1.19612928008023
1.18351551455755
1.16551249617485
1.139532365224
1.10483612497898
1.06065106614964
1.00602452063642
0.951602377824566
0.901076229247381
0.892415842108659
0.896295759988819
0.923253379898885
0.937038493118209
0.949619595871075
0.95294000038177
0.976252035621459
0.98967276043366
0.9958197760708
0.998894075848378
1.00198719035879
1.00371809193107
1.00516538248437
1.0062083639324
1.00695841807337
1.00754142371227
1.00796492132767
1.00828482208124
1.00851343381485
1.00870495911263
1.0088948159161
1.00911620189498
1.00939102562215
1.0097266809049
1.01008917397926
1.01043517486158
1.01073990414291
1.01095430719544
1.01103579787191
1.01096495477375
1.0106371013804
1.01045267471238
1.01050123556683
1.01086083637178
1.01153735190384
1.01251201090575
1.01377563084917
1.01530535523592
1.01708536087985
1.0190974282661
1.02132690362442
1.0237594871092
1.02638230176874
1.02918308977319
1.03215016381964
1.03527215176713
1.03853778271686
1.04193577983119