/*--------------------------------*- C++ -*----------------------------------*\
  =========                 |
  \\      /  F ield         | OpenFOAM: The Open Source CFD Toolbox
   \\    /   O peration     | Website:  https://openfoam.org
    \\  /    A nd           | Version:  7
     \\/     M anipulation  |
\*---------------------------------------------------------------------------*/
FoamFile
{
    version     2.0;
    format      ascii;
    class       surfaceScalarField;
    location    "10000";
    object      phi;
}
// * * * * * * * * * * * * * * * * * * * * * * * * * * * * * * * * * * * * * //

dimensions      [0 3 -1 0 0 0 0];

internalField   nonuniform List<scalar> 
30950
(
5.00281933841608e-05
-7.17385181143526e-06
4.55786486540821e-05
4.44954473078427e-06
7.91830641915321e-06
3.76603422341834e-05
-1.66800395258981e-05
2.45983459460557e-05
-1.93839908454632e-05
2.70395131982426e-06
-1.27787937471001e-05
-6.60519709860709e-06
-8.81244731686207e-06
-3.96634643023541e-06
-6.60740889605682e-06
-2.20503842083349e-06
-5.30821989886523e-06
-1.29918899707148e-06
-4.32604755802095e-06
-9.82172340880017e-07
-3.783676644022e-06
-5.42370914020934e-07
-3.61490040321311e-06
-1.68776240804747e-07
-3.76033042744649e-06
1.45430024277592e-07
-4.37134408605711e-06
6.11013658595085e-07
-5.50228706900587e-06
1.13094298295399e-06
-7.15838111815719e-06
1.65609404914454e-06
-9.11049555631869e-06
1.95211443821424e-06
-1.1236289278834e-05
2.125793722486e-06
-1.33529419146113e-05
2.1166526358081e-06
-1.51845642263913e-05
1.83162231179549e-06
-1.64585956191967e-05
1.27403139280667e-06
-1.72818922711397e-05
8.23296651957618e-07
-1.76333840290062e-05
3.51491757880341e-07
-1.72521757955056e-05
-3.81208233508165e-07
-1.61726037843361e-05
-1.07957201117237e-06
-1.44800565941321e-05
-1.69254719015796e-06
-1.29993764988975e-05
-1.48068009528332e-06
-1.95112071698175e-05
6.51183067093775e-06
-3.07689270179056e-05
1.12577198480774e-05
-4.03814689620028e-05
9.61254194410429e-06
-4.84991000042653e-05
8.11763104226655e-06
-5.53693099210895e-05
6.87020991682017e-06
-6.12436558558142e-05
5.87434593469966e-06
-6.62978367685913e-05
5.05418091277866e-06
-7.06874573340875e-05
4.38962056556449e-06
-7.45155307060766e-05
3.82807337191852e-06
-7.78626925014981e-05
3.34716179542143e-06
-8.07847379066742e-05
2.9220454050821e-06
-8.3323817233639e-05
2.53907932696666e-06
-8.55106468376138e-05
2.18682960391142e-06
-8.736857661371e-05
1.85792977609442e-06
-8.89155117906875e-05
1.54693517694809e-06
-9.01658896707223e-05
1.25037788011069e-06
-9.1132337822426e-05
9.66448151642704e-07
-9.18262880844092e-05
6.93950261972323e-07
-9.22565194442398e-05
4.3023135975758e-07
-9.24300844735435e-05
1.73565029351391e-07
-9.23565046537789e-05
-7.35798198732791e-08
-9.20469161833334e-05
-3.095884704136e-07
-9.15123343302864e-05
-5.34581853137432e-07
-9.07646155479571e-05
-7.47718782341908e-07
-8.9815970606432e-05
-9.48644941648207e-07
-8.86788748032699e-05
-1.13709580326464e-06
-8.73660915423782e-05
-1.31278326098669e-06
-8.58906152952553e-05
-1.47547624726525e-06
-8.42656137313028e-05
-1.62500156398947e-06
-8.25043324686584e-05
-1.76128126291922e-06
-8.06200032407635e-05
-1.88432922790046e-06
-7.86257456080923e-05
-1.99425763276664e-06
-7.65344734302905e-05
-2.09127217763171e-06
-7.43588131369212e-05
-2.17566029354845e-06
-7.21110109344333e-05
-2.24780220236656e-06
-6.98028693561691e-05
-2.30814157825846e-06
-6.74456366908391e-05
-2.35723266507177e-06
-6.5049977149555e-05
-2.39565954117673e-06
-6.26258583466562e-05
-2.42411880275189e-06
-6.01826443033629e-05
-2.44321404318892e-06
-5.77291444396442e-05
-2.45349986365723e-06
-5.52738699988936e-05
-2.45527444064049e-06
-5.28252945950038e-05
-2.44857540387767e-06
-5.03916745503433e-05
-2.43362004463579e-06
-4.79807034229332e-05
-2.41097112742642e-06
-4.55994347056288e-05
-2.38126871731327e-06
-4.32539449120043e-05
-2.3454897937214e-06
-4.09497043835653e-05
-2.30424052841186e-06
-3.86915407719265e-05
-2.25816361167246e-06
-3.64842190885851e-05
-2.20732168334965e-06
-3.43329258412286e-05
-2.1512932474178e-06
-3.22427146502466e-05
-2.09021119097303e-06
-3.02192420912402e-05
-2.02347255901125e-06
-2.82676402674227e-05
-1.95160182368201e-06
-2.63945303720096e-05
-1.87310989541616e-06
-2.46061324479592e-05
-1.78839792396307e-06
-2.29130428471444e-05
-1.69308960080464e-06
-2.13259553959873e-05
-1.58708745120261e-06
-1.98652115471863e-05
-1.46074384888202e-06
-1.85516895285225e-05
-1.31352201869442e-06
-1.74242688822486e-05
-1.12742064629155e-06
-1.65256576051171e-05
-8.98611277044467e-07
-1.59150674047956e-05
-6.10590200320117e-07
-1.56456857395531e-05
-2.69381665263302e-07
-1.5781240899831e-05
1.35555160273009e-07
-1.64471617414327e-05
6.65920841634293e-07
-1.60188685277848e-05
-4.28293213665934e-07
-1.52694689305494e-05
-7.4939959717119e-07
-1.35205945526416e-05
-1.74887437790368e-06
-1.10971890381871e-05
-2.42340551440057e-06
-7.8060421221373e-06
-3.29114691609237e-06
-3.69230164762399e-06
-4.11374047452577e-06
1.53112741275408e-06
-5.2234290603602e-06
7.55534911178108e-06
-6.02422169898802e-06
1.42812429018448e-05
-6.7258937900491e-06
2.13169117449813e-05
-7.03566884312153e-06
2.82990183939714e-05
-6.98210664910595e-06
3.4225272610764e-05
-5.92625421677348e-06
3.93190513160706e-05
-5.0937787053037e-06
4.39999353027164e-05
-4.68088398661304e-06
4.85667110672429e-05
-4.56677576434528e-06
5.36547732924645e-05
-5.08806222537024e-06
6.04288390402385e-05
-6.7740657477756e-06
7.07895509092534e-05
-1.03607118690267e-05
8.4148937432901e-05
-1.33593865237021e-05
0.000101675766918171
-1.75268294852628e-05
0.000126229403669276
-2.4553636751116e-05
0.000154811808325001
-2.85824046557651e-05
0.000170694739722694
-1.58829313976855e-05
0.000135482145595648
3.52125941269976e-05
8.5262584638999e-05
5.02195609563163e-05
4.48583172298523e-05
4.0404267407262e-05
2.00397565808187e-06
0.000172140771715165
-9.8960637139461e-06
0.000154649686833814
2.19406296126793e-05
6.23356540604334e-05
0.000129974375006914
-2.30093531681985e-05
0.000109943353175616
-4.82230322906966e-05
2.79176304424341e-05
-3.57200852068454e-05
-1.9108144182713e-05
-2.50385838700576e-05
-1.46478477670291e-05
-1.92046722898281e-05
-8.03895000110447e-06
-1.56835710536629e-05
-4.8202902331509e-06
-1.32151497076145e-05
-3.45059368696976e-06
-1.18989012672802e-05
-1.85861935437456e-06
-1.16899756782839e-05
-3.77701829868722e-07
-1.24623154966303e-05
9.17769842664894e-07
-1.45898607673046e-05
2.73855892923852e-06
-1.82130205384842e-05
4.75410275413983e-06
-2.32328844746906e-05
6.67595798529671e-06
-2.90670997023424e-05
7.78632966582086e-06
-3.53269949949214e-05
8.38568901498e-06
-4.15392900243302e-05
8.32894766534574e-06
-4.70835330767961e-05
7.37586536419948e-06
-5.14752303195229e-05
5.66572863557684e-06
-5.49093723967368e-05
4.25743872916468e-06
-5.73142213814158e-05
2.75634074259829e-06
-5.82128024493988e-05
5.1737283450418e-07
-5.76590086451052e-05
-1.63336581546976e-06
-5.67692826279143e-05
-2.58227320736154e-06
-5.97825326540715e-05
1.53256993090066e-06
-7.99057822202847e-05
2.66350802371046e-05
-0.000108783190386059
4.01351280138353e-05
-0.000133255033721132
3.40843852791584e-05
-0.000153113284145088
2.79758814661876e-05
-0.000169538193507478
2.32951192792135e-05
-0.000183264362695834
1.96005151231427e-05
-0.000194851829310409
1.66416475273618e-05
-0.000204702910653763
1.42407019089205e-05
-0.000213098355660049
1.22235183782753e-05
-0.000220241891440324
1.04906975757305e-05
-0.000226279983874233
8.96013783901631e-06
-0.000231321879456211
7.58097490892106e-06
-0.000235450258883246
6.31520903095522e-06
-0.000238729629017034
5.13729990994292e-06
-0.000241211922624552
4.02922878445852e-06
-0.000242940889988018
2.97934524357839e-06
-0.00024395605951929
1.9816176829672e-06
-0.000244295570536882
1.03346127964397e-06
-0.000243992909744673
1.27570567520745e-07
-0.000243071820276318
-7.47524439006216e-07
-0.000241559077095959
-1.58632300026527e-06
-0.000239490351170213
-2.37831439607855e-06
-0.000236900644481677
-3.12428854175499e-06
-0.000233823533662322
-3.82482960174162e-06
-0.000230292586329182
-4.47959227478728e-06
-0.000226341194222636
-5.08848790990895e-06
-0.00022200261309717
-5.651364386512e-06
-0.000217309877514536
-6.1682118299927e-06
-0.000212295698792886
-6.63918028565399e-06
-0.00020699231898063
-7.06466107527177e-06
-0.000201431368272747
-7.44527993578043e-06
-0.000195643721126414
-7.78190477926229e-06
-0.000189659361926972
-8.07563137697951e-06
-0.000183507266455984
-8.32775576460962e-06
-0.00017721527313032
-8.539795527961e-06
-0.00017080998484383
-8.71342986466996e-06
-0.000164316629877452
-8.85058763131095e-06
-0.000157759026767492
-8.95326265112334e-06
-0.00015115951863432
-9.02362693586358e-06
-0.000144539197055877
-9.06353562160143e-06
-0.000137918154747768
-9.07454217180758e-06
-0.000131315958224639
-9.05747096376485e-06
-0.00012475191990392
-9.01261372460751e-06
-0.000118244676357481
-8.94086359103591e-06
-0.000111811610268702
-8.84403721619865e-06
-0.000105468660039332
-8.7242189466164e-06
-9.92300111330874e-05
-8.58413869998678e-06
-9.31087246356345e-05
-8.42552702578104e-06
-8.71170428207255e-05
-8.24984542654723e-06
-8.1267463676146e-05
-8.05690082787462e-06
-7.55733861458022e-05
-7.84537077778645e-06
-7.00484777241443e-05
-7.61511961266929e-06
-6.4707554177416e-05
-7.36439610590408e-06
-5.95656523162002e-05
-7.09350368496409e-06
-5.46408250779023e-05
-6.79793713375405e-06
-4.99531910907173e-05
-6.47603191118607e-06
-4.55315006919662e-05
-6.11477999961917e-06
-4.14103609464935e-05
-5.70822719666285e-06
-3.7643077915928e-05
-5.22802687944467e-06
-3.42944603369967e-05
-4.66213959754035e-06
-3.14664000746201e-05
-3.95548090874439e-06
-2.92821023344773e-05
-3.08290901713577e-06
-2.79187032855136e-05
-1.97398924935184e-06
-2.75771494365312e-05
-6.10935514202453e-07
-2.85131762577307e-05
1.07158198150514e-06
-2.98872197865067e-05
2.03996437045224e-06
-2.84546908361447e-05
-1.86082216406756e-06
-2.55498222167916e-05
-3.65426821656124e-06
-2.0422733268465e-05
-6.8759633263064e-06
-1.35649046568521e-05
-9.28123412608367e-06
-4.80762808203305e-06
-1.20484234908825e-05
5.87659858721789e-06
-1.47979671437605e-05
1.88318811525506e-05
-1.81787116255965e-05
3.34803146652399e-05
-2.06726552116949e-05
4.94965582240879e-05
-2.27421373488512e-05
6.6178875089725e-05
-2.37179857087254e-05
8.27082745353672e-05
-2.35115060947949e-05
9.73492143889004e-05
-2.05671940703457e-05
0.000110191206018213
-1.79357703346374e-05
0.000121891447518601
-1.63811254869807e-05
0.000133133992920143
-1.58093211657701e-05
0.000145150051149441
-1.71041204548188e-05
0.000160357271721501
-2.1981286319897e-05
0.000182451526024809
-3.24549661723757e-05
0.000211544593980097
-4.24524544790186e-05
0.000250072396009484
-5.6054631514661e-05
0.000302485534589543
-7.69667753312106e-05
0.000366197357431518
-9.22942274977635e-05
0.000414878279464815
-6.4563853430973e-05
0.000383095625343676
6.69952482481436e-05
0.000293731904189302
0.00013958328211049
0.000199259734831496
0.000134876436763704
3.18451506776353e-05
0.000307032960728774
3.58707958314919e-06
0.000276730395557964
5.22431947838761e-05
0.000150110219100943
0.000256594551463549
-8.69588140842686e-07
0.000260923160418098
-6.7074552621181e-05
9.41225949229479e-05
-5.70383039989023e-05
-2.91443928052492e-05
-4.09511884822575e-05
-3.07349632837051e-05
-3.18931665029791e-05
-1.70969719804101e-05
-2.64107570360044e-05
-1.03026997000706e-05
-2.27314105975928e-05
-7.12994012539716e-06
-2.08705373562495e-05
-3.71949259572389e-06
-2.08670707522651e-05
-3.81168433858088e-07
-2.2571158591111e-05
2.62185768157965e-06
-2.65243370250937e-05
6.69173736320689e-06
-3.29090460986588e-05
1.11388118277181e-05
-4.14465906016055e-05
1.52135024882733e-05
-5.12346338290148e-05
1.75743728932336e-05
-6.16125644328583e-05
1.87636196187551e-05
-7.18754320567613e-05
1.85918152892507e-05
-8.12363784539556e-05
1.67368117613861e-05
-8.9223369647025e-05
1.36527198286392e-05
-9.61140400443548e-05
1.11481091264959e-05
-0.000101854575358245
8.49687605648937e-06
-0.000106014377583671
4.6771750599684e-06
-0.000108979860856046
1.33211745687339e-06
-0.000113323987571112
1.76185350769287e-06
-0.000125274670851887
1.34832532115661e-05
-0.000156148843432177
5.75092528174451e-05
-0.00019431826506787
7.83045496495736e-05
-0.000225240028985844
6.50061491971206e-05
-0.000249114003545213
5.1849856025629e-05
-0.000268094117874113
4.22752336080912e-05
-0.000283369886205724
3.48762834546946e-05
-0.000295794758240528
2.90665195621531e-05
-0.0003059348206975
2.43807643658854e-05
-0.000314184822463343
2.04735201440508e-05
-0.0003208244190131
1.71302941254545e-05
-0.000326057289753135
1.41930085790398e-05
-0.000330035829676141
1.15595148319705e-05
-0.000332877324701705
9.15670405654474e-06
-0.000334674461733879
6.934436942097e-06
-0.000335502806622227
4.85757367278413e-06
-0.000335425865150379
2.90240377168657e-06
-0.000334498657925644
1.0544104582291e-06
-0.000332771943516099
-6.93253129883646e-07
-0.000330297010105193
-2.34736284336454e-06
-0.000327123409928152
-3.92112461608168e-06
-0.000323296812268899
-5.4129206595606e-06
-0.000318861360557753
-6.81376610720275e-06
-0.000313859992920596
-8.125656178914e-06
-0.000308334457124241
-9.35036539808397e-06
-0.000302325472061535
-1.04885773375617e-05
-0.0002958728646718
-1.15410952996885e-05
-0.000289015662246573
-1.25085668117754e-05
-0.000281792083647825
-1.33917904288079e-05
-0.000274239497665724
-1.41917662677773e-05
-0.000266394341174213
-1.49098175669003e-05
-0.000258292032725498
-1.55475883844915e-05
-0.000249966881833144
-1.61070556716052e-05
-0.00024145200192926
-1.6590511280822e-05
-0.000232779229639917
-1.70005280539817e-05
-0.000223979036314264
-1.73399888535241e-05
-0.000215080455635773
-1.76120105432059e-05
-0.000206110997679059
-1.78200455879395e-05
-0.000197096644634268
-1.79676156958877e-05
-0.000188061880785492
-1.80583907846122e-05
-0.000179029960531714
-1.80954558753623e-05
-0.000170023237633039
-1.8081265070459e-05
-0.000161063624488436
-1.80170841083269e-05
-0.000152172733152679
-1.7903505060371e-05
-0.000143371378562222
-1.77422181814487e-05
-0.000134679057379711
-1.75363583987273e-05
-0.00012611375735923
-1.72895189670192e-05
-0.000117691871780384
-1.70060242788401e-05
-0.000109428838467973
-1.66885603381753e-05
-0.00010133967531867
-1.63390085758511e-05
-9.34401204912159e-05
-1.59564556553126e-05
-8.57471081671133e-05
-1.55383831019319e-05
-7.82784442557433e-05
-1.5083783524052e-05
-7.10533691711109e-05
-1.45894711905595e-05
-6.40925809327124e-05
-1.40542919232772e-05
-5.74203657396683e-05
-1.34701523267888e-05
-5.1065779984802e-05
-1.28306176660519e-05
-4.50675180124511e-05
-1.21130419719997e-05
-3.94754852477954e-05
-1.13002599613156e-05
-3.43600769244734e-05
-1.03434352028261e-05
-2.98128551176769e-05
-9.20936140428898e-06
-2.59686800762724e-05
-7.7996559501888e-06
-2.2996613971297e-05
-6.05497512206357e-06
-2.11553699922552e-05
-3.81523322842624e-06
-2.07367668725174e-05
-1.02953863393461e-06
-2.21829511674958e-05
2.51776627648099e-06
-2.35909386189469e-05
3.44795182188284e-06
-2.13562115276044e-05
-4.09554925535024e-06
-1.67449050168951e-05
-8.26557472727668e-06
-9.51151129279507e-06
-1.41093570504051e-05
5.24694398047716e-09
-1.87979923628919e-05
1.18350393196745e-05
-2.38782158665968e-05
2.61560112660487e-05
-2.91189390901484e-05
4.3205528937211e-05
-3.52282292967666e-05
6.24669228021939e-05
-3.99340490766866e-05
8.34725437144514e-05
-4.3747758261146e-05
0.00010550763936854
-4.57530813627912e-05
0.000127600684627679
-4.56045513539853e-05
0.000148043488860326
-4.10099983030052e-05
0.00016660659342585
-3.64988749001472e-05
0.000183842608159848
-3.36171402209577e-05
0.000200522432400016
-3.24891454058329e-05
0.00021796039507207
-3.45420831269521e-05
0.000238910795412687
-4.29316866605357e-05
0.000267541162135326
-6.10853328950182e-05
0.000304858556398811
-7.97698487425416e-05
0.00035330395908713
-0.000104500034202986
0.000416483727044575
-0.000140146543288689
0.000492745508767998
-0.000168556009221166
0.000559990370356684
-0.000131808715019675
0.00055733967113052
6.96459474742752e-05
0.000480922402527879
0.00021600055071299
0.000375524337420516
0.000240274501870229
8.6853384072722e-05
0.000419766082917358
2.95700039120557e-05
0.000384479298503135
8.75299791983031e-05
0.000248432714860484
0.000392641135105979
4.67824584984196e-05
0.000462573416780644
-7.17226282729489e-05
0.000212627681694384
-7.56133588297488e-05
-2.52536622486466e-05
-5.62558378769391e-05
-5.00924842364795e-05
-4.439589276967e-05
-2.89569170877167e-05
-3.73523286000414e-05
-1.73462638695369e-05
-3.28012200307227e-05
-1.16810486947229e-05
-3.07133912595568e-05
-5.80732136690035e-06
-3.12173931079609e-05
1.22833414528417e-07
-3.41846746803708e-05
5.58913925403487e-06
-4.02545876731001e-05
1.27616503558871e-05
-4.9563242175897e-05
2.04474663304956e-05
-6.15735905794e-05
2.72238508917916e-05
-7.50503886641567e-05
3.10511709779519e-05
-8.9058495774804e-05
3.27717267293612e-05
-0.000102714184007271
3.22475035217875e-05
-0.00011520446629122
2.92270940452729e-05
-0.000126184800415654
2.46330539530438e-05
-0.000136023698801309
2.09870075121438e-05
-0.000144800220088818
1.72733973439595e-05
-0.000152438524583552
1.23154795547014e-05
-0.000159898424911822
8.79201778514218e-06
-0.000170335091826721
1.21985204225931e-05
-0.000189262764273278
3.24109256581197e-05
-0.00022316368884928
9.14101773934187e-05
-0.000260005194722018
0.000115146055522295
-0.000288392369291919
9.33933237670234e-05
-0.000309744540691707
7.32020274253939e-05
-0.000326407732668887
5.89384255852751e-05
-0.000339570714167306
4.8039264953099e-05
-0.000350056085804505
3.95518911993661e-05
-0.000358385082234221
3.27097607956344e-05
-0.000364921588111605
2.70100260214423e-05
-0.000369920382146319
2.21290881601826e-05
-0.000373568188266683
1.78408146994071e-05
-0.000376004800463623
1.39961270289143e-05
-0.000377338574357134
1.04904779500171e-05
-0.000377655588181999
7.2514507669514e-06
-0.00037702654450983
4.22853000058733e-06
-0.000375511396899274
1.38725616117701e-06
-0.000373165070069261
-1.29191637178813e-06
-0.000370039070080928
-3.81925311820662e-06
-0.000366180116883598
-6.20631604073267e-06
-0.000361636350735718
-8.46489076394297e-06
-0.000356455208087449
-1.05940633078503e-05
-0.0003506793958505
-1.25895783441571e-05
-0.00034435070633983
-1.44543456895928e-05
-0.000337510078376512
-1.61909933613997e-05
-0.000330197555628532
-1.78011000855303e-05
-0.000322452444083241
-1.92862068450016e-05
-0.000314313367320149
-2.06476435748662e-05
-0.000305818242901165
-2.1886914847802e-05
-0.000297004223704569
-2.30057854643584e-05
-0.000287907608212501
-2.4006433059024e-05
-0.000278563746209659
-2.48914503873254e-05
-0.000269006943238941
-2.5663858642367e-05
-0.000259270369765667
-2.63270847540645e-05
-0.000249385975477635
-2.68849223420377e-05
-0.000239384401487317
-2.73415628438258e-05
-0.000229294902137279
-2.77015098932059e-05
-0.000219145269041587
-2.79696786836205e-05
-0.000208961818191246
-2.81510665462221e-05
-0.000198769440101551
-2.82507688743076e-05
-0.000188591852177474
-2.82730437994277e-05
-0.00017845193660764
-2.82211806402853e-05
-0.00016837218631671
-2.8096834399249e-05
-0.00015837481348991
-2.79008778871408e-05
-0.000148481249383396
-2.76357822879601e-05
-0.000138711661344746
-2.73059464373791e-05
-0.000129084749500414
-2.69164308113757e-05
-0.000119617750667209
-2.64730231120825e-05
-0.000110327028073106
-2.59792829323106e-05
-0.000101228679385224
-2.54373572637356e-05
-9.23396767200346e-05
-2.48454583204921e-05
-8.36782849310988e-05
-2.4199774890863e-05
-7.52639261701289e-05
-2.3498142285041e-05
-6.71175298728928e-05
-2.27358674878034e-05
-5.9262026044596e-05
-2.19097957515627e-05
-5.17239442120719e-05
-2.10082341593128e-05
-4.45355792122153e-05
-2.00189826658896e-05
-3.77385947080958e-05
-1.89100264761445e-05
-3.13876209763368e-05
-1.76512336930705e-05
-2.5556891209852e-05
-1.61741649693019e-05
-2.03444074599049e-05
-1.44218451542387e-05
-1.5890349972651e-05
-1.22537134374444e-05
-1.23707611307133e-05
-9.57456396403193e-06
-1.00580415842434e-05
-6.12795277492105e-06
-9.24943244508435e-06
-1.83814777306479e-06
-1.04995636503546e-05
3.76789748172022e-06
-1.16045337764114e-05
4.55292194797824e-06
-9.00832819649347e-06
-6.69175483525285e-06
-3.59524483070693e-06
-1.3678658093098e-05
4.54969475134085e-06
-2.2254296632445e-05
1.52365947345457e-05
-2.94848923460657e-05
2.84032933492358e-05
-3.70449144812581e-05
4.4274549143853e-05
-4.49901948847538e-05
6.30000171017058e-05
-5.39536972546123e-05
8.41438275450814e-05
-6.10778595200845e-05
0.000107181166679233
-6.67850973952701e-05
0.000131429705764867
-7.00016204484165e-05
0.00015591896643626
-7.00938120254139e-05
0.000179154533529678
-6.4245565396421e-05
0.000200773454634392
-5.81177960048979e-05
0.000221231677501496
-5.4075363088062e-05
0.000241276927573205
-5.25343954774811e-05
0.000262123604789528
-5.53887603433177e-05
0.000286367846969297
-6.71759288403257e-05
0.000317982269764944
-9.26997556906534e-05
0.000358525233133533
-0.000120312812111137
0.000410226751386694
-0.000156201552456158
0.000475781398228747
-0.000205701190130737
0.000554103895311822
-0.000246878506304244
0.000626937942088032
-0.000204642761795884
0.000645981830249401
5.06020593129085e-05
0.000597101023566008
0.000264881357396335
0.000508054626172802
0.000329320899262985
0.000149159002999505
0.000504290818365212
6.06000539309774e-05
0.000469570747998016
0.000122250049565631
0.000340254703526107
0.000521957179577724
0.000111002246466839
0.000691825873840229
-6.01862982581624e-05
0.000383816226419481
-9.00316220135587e-05
4.5916615066043e-06
-7.0725901871239e-05
-6.9398204378853e-05
-5.6559072235553e-05
-4.31237467235468e-05
-4.83779058644912e-05
-2.55274302405313e-05
-4.3340342076669e-05
-1.6718612482557e-05
-4.13653788331919e-05
-7.78228461042759e-06
-4.26734085686842e-05
1.43086315004808e-06
-4.71667957577222e-05
1.00825264430243e-05
-5.54694651560681e-05
2.10643197542148e-05
-6.75305149860531e-05
3.25085161605045e-05
-8.24373710046674e-05
4.21307069103601e-05
-9.85996915838863e-05
4.72134915571668e-05
-0.000114847762356359
4.90197975018317e-05
-0.000130258954356013
4.76586955214737e-05
-0.000144195879827349
4.31640195165748e-05
-0.00015659732039803
3.70344945236926e-05
-0.000167992399884163
3.23820869982425e-05
-0.000178660385926297
2.7941383386091e-05
-0.000188893192553805
2.25482861822251e-05
-0.000199956070726828
1.98548959581926e-05
-0.000214675230091057
2.69176797868401e-05
-0.000236951855753878
5.4687551320924e-05
-0.000269349911812607
0.000123808233452177
-0.000301428699303628
0.000147224843013314
-0.000325739428096977
0.000117704052560345
-0.000344246485629976
9.17090849583522e-05
-0.000358799391796365
7.34913317516645e-05
-0.000370313246669086
5.95531198258483e-05
-0.000379445312073799
4.86839566040676e-05
-0.000386612194254644
3.98766429764682e-05
-0.000392115008828052
3.25128405948453e-05
-0.000396167281899093
2.61813612312198e-05
-0.000398929121639157
2.06026544394639e-05
-0.000400522091885797
1.55890972755571e-05
-0.000401042049103515
1.10104351677403e-05
-0.000400566214714762
6.77561637819624e-06
-0.00039915912117584
2.82143646165011e-06
-0.00039687733059388
-8.94534420780238e-07
-0.000393772495860058
-4.39675110563303e-06
-0.000389891862416337
-7.69988656191557e-06
-0.000385281209028112
-1.08169694289694e-05
-0.000379988162412029
-1.37579373800224e-05
-0.000374058242909412
-1.65239828104782e-05
-0.000367533446829444
-1.91143744241291e-05
-0.000360455093099557
-2.15326994195005e-05
-0.000352863782959879
-2.37823035010767e-05
-0.000344799408405799
-2.58654746396194e-05
-0.000336301272891149
-2.77843423596675e-05
-0.000327408116716562
-2.95407997494659e-05
-0.000318158073738461
-3.11369578259278e-05
-0.00030858859333702
-3.25752658658095e-05
-0.000298736337344313
-3.38586890517567e-05
-0.000288637073703665
-3.49907140279781e-05
-0.000278325571865734
-3.59753604803113e-05
-0.000267835504859087
-3.68171517606968e-05
-0.000257199357366481
-3.75210698346448e-05
-0.000246448335474733
-3.80925847355608e-05
-0.000235612283352705
-3.85375620152368e-05
-0.000224719608380338
-3.88623536559599e-05
-0.000213797258141775
-3.90734167847642e-05
-0.0002028707691576
-3.91772578584709e-05
-0.000191964501176501
-3.91793117805202e-05
-0.000181101972484173
-3.90837093326189e-05
-0.000170306310843313
-3.88924960400871e-05
-0.000159600375905328
-3.86068128251241e-05
-0.000149006271749234
-3.82298864440482e-05
-0.000138544877219303
-3.7767340967295e-05
-0.00012823563140008
-3.72256766306077e-05
-0.000118096562803102
-3.66120917090627e-05
-0.000108144844601289
-3.59310011341089e-05
-9.83974216167993e-05
-3.51847802482249e-05
-8.88721547085799e-05
-3.43707252287115e-05
-7.95882466219346e-05
-3.34836829775155e-05
-7.05661944863501e-05
-3.25201944206279e-05
-6.18280509207271e-05
-3.14740110534354e-05
-5.33980974764187e-05
-3.03397491958618e-05
-4.53041993710313e-05
-2.91021322647114e-05
-3.75803085641409e-05
-2.77428734727858e-05
-3.02695041193829e-05
-2.62208309208877e-05
-2.34282433514249e-05
-2.44924944610163e-05
-1.71317767751131e-05
-2.24706315456101e-05
-1.14793106365861e-05
-2.00743112927797e-05
-6.61010742812869e-06
-1.71229166459025e-05
-2.69815194388362e-06
-1.34865194482629e-05
-1.02586599146651e-08
-8.81584605888182e-06
1.17128862883857e-06
-3.01969506181717e-06
2.81429705989636e-07
4.65775640458692e-06
-4.73213068055132e-07
5.30756472201918e-06
2.37425223099589e-06
-9.53922013431185e-06
8.25712633386042e-06
-1.95615321959486e-05
1.69519378225953e-05
-3.0949108121181e-05
2.83347767053587e-05
-4.0867731228836e-05
4.23127361672717e-05
-5.10228739431746e-05
5.91076157157592e-05
-6.17850744332334e-05
7.88140812201616e-05
-7.36601627590189e-05
0.000101026209923931
-8.32899882238485e-05
0.000125185018532951
-9.09439060042935e-05
0.000150610101887051
-9.54267038024925e-05
0.000176339512516987
-9.5823222655371e-05
0.000201030856076928
-8.89369089563645e-05
0.000224297088456249
-8.13840283842273e-05
0.000246553001552841
-7.63312761846496e-05
0.000268530520493633
-7.45119144182744e-05
0.000291390555938245
-7.82487957879452e-05
0.00031760423906051
-9.33896119625793e-05
0.000350937114220502
-0.000126032630850649
0.000393250683289129
-0.000162626381179772
0.000446697764343942
-0.000209648633510987
0.000513395547383835
-0.00027239897317063
0.000592204758678283
-0.000325687717598702
0.000665904043788552
-0.000278342046906158
0.000694426678046712
2.20794250547398e-05
0.000664065716770356
0.000295242318672656
0.000594021455135916
0.000399365160897118
0.000207859589751456
0.000569664222117723
9.19445938202096e-05
0.000537666094286378
0.000154248177397078
0.000422087298451042
0.000637535975412982
0.000183859819332926
0.000930053352958594
-3.36980779371239e-05
0.000601374123689513
-9.83980357942117e-05
6.92916193635852e-05
-8.39492123951358e-05
-8.38470277779237e-05
-6.81843387163837e-05
-5.88886204023289e-05
-5.9259986482973e-05
-3.44517824737427e-05
-5.41244786070867e-05
-2.185412035844e-05
-5.25647084074712e-05
-9.34205481000964e-06
-5.48734400786003e-05
3.73959482119895e-06
-6.09417274177408e-05
1.61508137822405e-05
-7.12236740563577e-05
3.13462663928629e-05
-8.53352767131327e-05
4.66201188172775e-05
-0.000101955970335727
5.87514005329805e-05
-0.000119297200994881
6.45547222163912e-05
-0.000136214950375971
6.59375468829209e-05
-0.000152013822380904
6.34575675264055e-05
-0.000166374070201563
5.7524267337256e-05
-0.000179488815708986
5.01492400311236e-05
-0.00019195087803896
4.48441493281825e-05
-0.000204121379085915
4.01118844330603e-05
-0.000216452508297718
3.48794153940492e-05
-0.000230182833935237
3.35852215957559e-05
-0.000247478560284385
4.42134061359596e-05
-0.000270844521025589
7.80535120621112e-05
-0.000300735743712317
0.000153699456138875
-0.000328750844035493
0.000175239943336486
-0.000350179067988576
0.000139132276513396
-0.000366886066381362
0.000108416083351141
-0.000380186229197162
8.67914945674613e-05
-0.000390764530456937
7.01314210856256e-05
-0.000399147142486241
5.70665686333663e-05
-0.000405676153022196
4.64056535124381e-05
-0.000410609500473428
3.74461880460803e-05
-0.000414133779393499
2.97056401512843e-05
-0.000416392236788093
2.28611118340377e-05
-0.000417495330569558
1.66921910570281e-05
-0.000417531583200702
1.1046687798893e-05
-0.000416573287566984
5.81732074449073e-06
-0.000414681864739246
9.30013633906551e-07
-0.000411911829135935
-3.66457002408622e-06
-0.000408312809741525
-7.99577050003815e-06
-0.000403931029474003
-1.20816668294392e-05
-0.000398812352270664
-1.59356466323154e-05
-0.000393003342654169
-1.95669469965198e-05
-0.000386548611390746
-2.29787140738919e-05
-0.000379490363034503
-2.6172622780364e-05
-0.000371870185727367
-2.91528767266395e-05
-0.000363729011797953
-3.1923477430485e-05
-0.000355107175912247
-3.44873105253216e-05
-0.000346044507388911
-3.68470108830109e-05
-0.000336580339508408
-3.9004967629972e-05
-0.000326753453715204
-4.0963843619136e-05
-0.000316601988933007
-4.27267306479991e-05
-0.000306163328968291
-4.42973490164943e-05
-0.000295473987614087
-4.56800553821853e-05
-0.000284569497473234
-4.68798506211749e-05
-0.000273484307072672
-4.79023421612387e-05
-0.00026225168507445
-4.8753691832885e-05
-0.00025090362856241
-4.94406412475937e-05
-0.000239470776996065
-4.99704135815818e-05
-0.000227982336685379
-5.03507939666302e-05
-0.000216466049604282
-5.05897038658669e-05
-0.000204948234587377
-5.0695072875366e-05
-0.000193454005759618
-5.06735406082735e-05
-0.00018200760255389
-5.05301125383403e-05
-0.000170632853272074
-5.02672453219056e-05
-0.000159353325947055
-4.98863401501422e-05
-0.000148191855795303
-4.93913565957959e-05
-0.00013717007907118
-4.87891176914252e-05
-0.000126308210675889
-4.80875450258961e-05
-0.000115625077103813
-4.72952252811345e-05
-0.000105138648939621
-4.64174292982935e-05
-9.48666702314964e-05
-4.54567589563564e-05
-8.48278130261645e-05
-4.44095824340564e-05
-7.50421308282324e-05
-4.32693651754524e-05
-6.55310554190299e-05
-4.20312698298348e-05
-5.63176230238842e-05
-4.06874434485811e-05
-4.7427219501952e-05
-3.9230152717785e-05