1 	0.451351328259074 	-2.42861286636753e-17 	1.00637362307118 	6.72356076929966e-06 	1071.96436464539
1 	0.457856884621384 	-2.77555756156289e-17 	1.00639203542516 	7.35596147027479e-05 	297.293807871848
1 	0.464597494115859 	-2.77555756156289e-17 	1.00640983958532 	0.000365981816138011 	76.563766966113
1 	0.471581531993916 	-3.46944695195361e-17 	1.00642059411324 	0.00104033177567324 	32.1160428381242
1 	0.478817663648872 	-4.16333634234434e-17 	1.00641893544199 	0.0019497795021276 	17.1499275809475
1 	0.486314854099112 	-4.16333634234434e-17 	1.00640211101564 	0.00281347307399679 	10.8193397916861
1 	0.494082377743682 	-3.46944695195361e-17 	1.00637255161534 	0.00353814537045843 	7.69460246704216
1 	0.502129828395864 	-3.12250225675825e-17 	1.00633519630559 	0.00414061344796485 	5.93473763834418
1 	0.510467129600163 	-4.16333634234434e-17 	1.00629449256939 	0.00465216074867406 	4.83537081007334
1 	0.519104545238184 	-5.55111512312578e-17 	1.00625374322467 	0.00509664165049965 	4.09407867363143
1 	0.528052690428786 	-6.24500451351651e-17 	1.00621544879355 	0.00549038687382677 	3.56540138151373
1 	0.537322542727918 	-6.24500451351651e-17 	1.00618157268998 	0.0058446060050879 	3.17223914416445
1 	0.546925453633457 	-6.24500451351651e-17 	1.0061536683805 	0.00616721513195405 	2.87038449263332
1 	0.556873160400326 	-6.24500451351651e-17 	1.00613296818661 	0.00646400225443612 	2.63284417437916
1 	0.567177798171134 	-5.89805981832114e-17 	1.00612045930567 	0.00673935867023228 	2.44228320254913
1 	0.577851912427522 	-4.85722573273506e-17 	1.00611694972292 	0.00699675025767346 	2.28710948179548
1 	0.588908471767319 	-3.81639164714898e-17 	1.00612312588172 	0.00723903491650807 	2.1593193799178
1 	0.600360881012588 	-3.12250225675825e-17 	1.00613960490355 	0.00746868874778112 	2.05325260743322
1 	0.612222994653594 	-2.42861286636753e-17 	1.00616698632396 	0.00768797815718195 	1.9648442132463
1 	0.624509130633639 	-2.08166817117217e-17 	1.00620591612978 	0.00789910042923278 	1.89116287537657
1 	0.637234084479704 	-1.73472347597681e-17 	1.00625714051925 	0.00810430436776301 	1.83012134231704
1 	0.650413143783826 	-1.73472347597681e-17 	1.0063215209896 	0.00830600223815654 	1.78030188480606
1 	0.664062103040055 	-2.42861286636753e-17 	1.00640005655246 	0.00850688599351134 	1.74086017392708
1 	0.678197278841898 	-2.77555756156289e-17 	1.00649392085929 	0.00871004670973343 	1.71149434867812
1 	0.692835525445182 	-2.91650384398601e-17 	1.00660389934264 	0.00891922390984117 	1.69270542357308
1 	0.707994250701264 	-3.78386558197441e-17 	1.00673118758303 	0.00913911351055443 	1.68577433306122
1 	0.723691432365647 	-4.55364912443912e-17 	1.00687838040736 	0.00937508527687644 	1.69251852747606
1 	0.739945634787164 	-4.64038529823796e-17 	1.00704741367539 	0.0096341311307746 	1.7167066179808
1 	0.756776025983054 	-4.59701721133854e-17 	1.00724081696959 	0.00992578828897875 	1.76486781631742
1 	0.774202395105461 	-4.59701721133854e-17 	1.00746224655546 	0.010264147696601 	1.84832343191775
1 	0.792245170305166 	-5.03069808033274e-17 	1.00771684041868 	0.0106711465023586 	1.98559243041168
1 	0.810925436998707 	-5.20417042793042e-17 	1.00801099552497 	0.0111807394358669 	2.20259450770395
1 	0.830264956545436 	-5.29090660172926e-17 	1.00835347245963 	0.0118367485468348 	2.51763519082254
1 	0.850286185341601 	-5.3776427755281e-17 	1.00875635440586 	0.0127006133507372 	2.9313739814934
1 	0.871012294339098 	-4.33680868994202e-17 	1.00922965439369 	0.0138917243165509 	3.46914553122964
1 	0.892467188997261 	-3.64291929955129e-17 	1.00977762775893 	0.0155999325941735 	4.17968711598727
1 	0.914675529676922 	-3.81639164714898e-17 	1.01040212736554 	0.0180567754865356 	5.09636757088031
1 	0.937662752486865 	-4.33680868994202e-17 	1.01111408219198 	0.0214526786407193 	6.21098159742078
1 	0.961455090593968 	-4.5102810375397e-17 	1.01193890886504 	0.0257813434433462 	7.46168004047994
1 	0.986079596009581 	-4.16333634234434e-17 	1.01290639768105 	0.0306911530895616 	8.74064314976183
1 	1.01156416186612 	-4.5102810375397e-17 	1.01403092662553 	0.0354476166973007 	9.90520975405365
1 	1.03793754519955 	-4.85722573273506e-17 	1.01529128611966 	0.0390822857439789 	10.7867598072497
1 	1.06522939025519 	-4.5102810375397e-17 	1.01662505432793 	0.0407131625096638 	11.2084788238021
1 	1.09347025233648 	-4.5102810375397e-17 	1.01794468169274 	0.0399267702416569 	11.0317452133371
0.999999999999999 	1.12269162221858 	-3.81639164714898e-17 	1.01917043175012 	0.0370206813695424 	10.2129641006316
0.999999999999999 	1.1529259511513 	-3.12250225675825e-17 	1.02026272294109 	0.0329342411688682 	8.85326753382605
0.999999999999999 	1.18420667647869 	-3.12250225675825e-17 	1.02123642732426 	0.0288495627746049 	7.2004453306931
0.999999999999999 	1.20932909529518 	-2.77555756156289e-17 	1.02195163321981 	0.026235466474406 	5.90847255817902
0.999999999999999 	1.22578615918077 	-3.12250225675825e-17 	1.02240360171427 	0.02494363613808 	5.13817375807608
1 	1.25005321751936 	-3.12250225675825e-17 	1.02308275754072 	0.0236790289589324 	4.20934597076231
1 	1.28469102414952 	-2.77555756156289e-17 	1.02410820691672 	0.022707862656572 	3.23771795165696
1 	1.3205186819877 	-2.42861286636753e-17 	1.02527666789223 	0.0223131819674492 	2.6308653595522
1 	1.3575749113035 	-1.38777878078145e-17 	1.02659874385064 	0.0220791659048219 	2.28831645971795
1 	1.39589958614917 	-1.04083408558608e-17 	1.02805658065687 	0.0217367381344358 	2.09754020345839
1 	1.43553376564998 	-1.38777878078145e-17 	1.02962373586905 	0.0211516705784355 	1.97049641544206
1 	1.4765197263163 	-1.04083408558608e-17 	1.03127903245532 	0.0202792376454144 	1.85619623536477
1 	1.51890099544962 	-6.93889390390723e-18 	1.03301103919053 	0.0191336292190427 	1.73561701631338
1 	1.56272238572095 	0 	1.03481577286959 	0.0177852684102688 	1.61265596699745
1 	1.60803003100759 	1.04083408558608e-17 	1.03669117613433 	0.0163324864764389 	1.49473986710375
1 	1.65487142358123 	1.04083408558608e-17 	1.0386334360655 	0.0148556918744834 	1.38162745941046
1 	1.70329545274835 	0 	1.04063717326315 	0.0134261659656266 	1.2711434524089
1 	1.75335244505181 	-3.46944695195361e-18 	1.04269616555695 	0.0121103057128675 	1.16264471202692
1 	1.80509420615134 	2.81892564846231e-18 	1.044804897465 	0.010962608175805 	1.05764320868127
1 	1.85857406450905 	8.02309607639273e-18 	1.04695510097519 	0.0100146134131752 	0.959708687224194
1 	1.91384691701544 	5.20417042793042e-18 	1.04914477813824 	0.00925431805946281 	0.872428865342295
1 	1.97096927670056 	-6.07153216591882e-18 	1.051302890041 	0.00864775132560104 	0.796149787389993
1 	2.02024009608346 	-1.04083408558608e-17 	1.05317658357568 	0.00823121460439549 	0.744733764739515
1 	2.06000503604194 	-1.04083408558608e-17 	1.05465816769895 	0.00794741187308556 	0.715045132700411
1 	2.09836474743796 	-1.04083408558608e-17 	1.0560377011846 	0.00771502114926406 	0.696283529633056
1 	2.13536888877257 	-1.04083408558608e-17 	1.05733605493843 	0.00751320768207143 	0.684602376077604
1 	2.17106536369584 	-1.04083408558608e-17 	1.05855716996413 	0.00733151338918477 	0.678003430489027
1 	2.20550038302044 	-1.04083408558608e-17 	1.05970808044006 	0.0071628549014168 	0.675268420140693
1 	2.23871852454378 	-1.04083408558608e-17 	1.06077521456983 	0.00700143113243321 	0.675618281661786
1 	2.27076279075613 	-1.04083408558608e-17 	1.06176043189446 	0.00684456022958011 	0.678589093730216
1 	2.3016746645094 	-1.38777878078145e-17 	1.06268386398814 	0.00669494659153558 	0.683917761550195
1 	2.33149416271872 	-2.08166817117217e-17 	1.06354736838231 	0.00655621661954576 	0.69147051701689
1 	2.36025988816626 	-2.42861286636753e-17 	1.06435339621732 	0.00642962368387311 	0.701231260673973
1 	2.38800907947441 	-2.42861286636753e-17 	1.06510665338795 	0.00631512370378855 	0.713256511625999
1 	2.41477765931295 	-3.12250225675825e-17 	1.06581167419654 	0.00621259826968771 	0.72765943547637
1 	2.44060028090272 	-3.81639164714898e-17 	1.06647216040935 	0.0061222249704534 	0.744619513711566
1 	2.46551037287586 	-3.46944695195361e-17 	1.06709120404452 	0.00604445263187891 	0.764397092143169
1 	2.48954018255081 	-2.77555756156289e-17 	1.06767151179292 	0.00597993902797832 	0.787344529761675
1 	2.512720817678 	-2.42861286636753e-17 	1.06821549576505 	0.00592952723756059 	0.813915105963658
1 	2.53508228671037 	-2.42861286636753e-17 	1.068725310419 	0.00589423663830954 	0.844671928292422
1 	2.55665353765073 	-2.42861286636753e-17 	1.06920288182521 	0.00587524568528957 	0.880296259538684
1 	2.57746249552636 	-2.42861286636753e-17 	1.06964993776066 	0.00587385673971606 	0.921592043935446
1 	2.59753609853934 	-1.73472347597681e-17 	1.07006804359902 	0.00589143539436668 	0.969482145099612
1 	2.61690033293929 	-1.04083408558608e-17 	1.07045866059275 	0.00592931380449952 	1.02499214476433
1 	2.63558026666389 	-1.04083408558608e-17 	1.07082323087758 	0.0059886466816624 	1.08922005009895
1 	2.65360008179049 	-1.04083408558608e-17 	1.071163233349 	0.00607020902987619 	1.16329317045659
1 	2.67098310584102 	-1.38777878078145e-17 	1.0714800481452 	0.00617411079141936 	1.24830575742708
1 	2.68775184198056 	-2.08166817117217e-17 	1.07177442932363 	0.00629935016961593 	1.34518941277454
1 	2.70392799814879 	-2.08166817117217e-17 	1.07204560325195 	0.00644306191077007 	1.45438347771695
1 	2.71953251516198 	-1.38777878078145e-17 	1.07229051187455 	0.00659944745544807 	1.57513341369583
1 	2.73458559382185 	-6.93889390390723e-18 	1.07250438717301 	0.00675905216378496 	1.70451918068451
1 	2.74910672106653 	-6.93889390390723e-18 	1.07268548410197 	0.00691000943922962 	1.83710704300914
1 	2.76311469519732 	-1.04083408558608e-17 	1.0728465228163 	0.0070421676195502 	1.96673960549967
1 	2.776627650214 	-6.93889390390723e-18 	1.07301034868979 	0.00715117003591237 	2.09046135448557
1 	2.78966307929018 	0 	1.07317638133847 	0.00723682995127295 	2.20819656096859
1 	2.80223785741904 	3.46944695195361e-18 	1.07333095935123 	0.00729841149426219 	2.31937882050789
1 	2.81436826325886 	0 	1.07347236984571 	0.00733489470385283 	2.42292628841586
1 	2.82607000020648 	0 	1.07360214884782 	0.00734631526258254 	2.51838778600259
1 	2.83735821672614 	6.93889390390723e-18 	1.0737214285823 	0.00733383975154901 	2.60616018624336
1 	2.8482475259599 	1.04083408558608e-17 	1.07383114709324 	0.00729952483341715 	2.68747182413283
1 	2.85875202464506 	1.38777878078145e-17 	1.07393224208155 	0.0072460392998324 	2.76432682996817
1 	2.86888531136304 	1.73472347597681e-17 	1.07402563807668 	0.00717639066638198 	2.83943318693518
1 	2.87866050414343 	1.38777878078145e-17 	1.07411222944281 	0.00709368365446713 	2.91613711175034
1 	2.88809025744591 	1.38777878078145e-17 	1.07419287028537 	0.00700092753573912 	2.99838749482138
1 	2.89718677854204 	1.38777878078145e-17 	1.07426836091332 	0.00690089878438462 	3.09075295868316
1 	2.90596184331818 	1.04083408558608e-17 	1.07433943125144 	0.00679605671220898 	3.19851339957788
1 	2.91442681151997 	6.93889390390723e-18 	1.07440672238216 	0.00668850404662979 	3.32784996283174
1 	2.922592641458 	3.46944695195361e-18 	1.07447076813343 	0.00657998161768107 	3.48616421467217
1 	2.93046990419394 	3.46944695195361e-18 	1.07453197792229 	0.0064718856887737 	3.68257113605022
1 	2.93806879722526 	6.93889390390723e-18 	1.07459062296709 	0.00636529684361589 	3.9286347788965
1 	2.94539915768638 	1.04083408558608e-17 	1.07464682723364 	0.00626100953926882 	4.23945528783764
1 	2.95247047508334 	1.04083408558608e-17 	1.07470056500951 	0.00615954994436664 	4.63528014366575
1 	2.9592919035784 	1.21430643318376e-17 	1.0747516664129 	0.00606116447491067 	5.14391521293317
1 	2.96587227384055 	1.38777878078145e-17 	1.07479983363305 	0.00596574904157576 	5.80437586140409
1 	2.97222010447726 	1.04083408558608e-17 	1.07484466846081 	0.00587266352805749 	6.67248382237439
1 	2.97834361306218 	3.46944695195361e-18 	1.07488569416007 	0.00578032781044516 	7.82954996500457
1 	2.98425072677325 	0 	1.07492236598908 	0.00568541331532683 	9.39602685480152
1 	2.98994909265477 	-3.46944695195361e-18 	1.07495436036457 	0.00558126599995697 	11.5536533590946
1 	2.99544608751689 	-6.93889390390723e-18 	1.07498243286425 	0.00545348018865795 	14.5876717133011
1 	3.00074882748522 	-6.93889390390723e-18 	1.07500619231908 	0.00526901662968064 	18.9646474240305
1 	3.00586417721304 	-6.93889390390723e-18 	1.07502398226294 	0.0049711323855192 	25.390962881959
1 	3.01079875876789 	-6.93889390390723e-18 	1.07503585564491 	0.00446648976355574 	34.9225492631992
1 	3.01555896020418 	0 	1.07504302333827 	0.00363073736009364 	49.5887238781225
1 	3.02015094383281 	3.46944695195361e-18 	1.07504673962145 	0.00237775278246261 	75.1004041560801
1 	3.02458065419861 	0 	1.07504839958185 	0.00096535843757224 	137.410062152402
1 	3.02885382577582 	0 	1.07504913534719 	0.000187857111942614 	433.325211374485
1 	3.03297599039165 	-6.93889390390723e-18 	1.07504941308157 	1.43228524538288e-05 	1716.49388525986
