1.00000000000453e-06 	1.00195556483898 	0 	0.921299482234035 	0.000212019016344746 	1568.94416595021
1.00000000000453e-06 	1.00593833258374 	0 	0.921329832523701 	0.00165633142888434 	705.34480880138
1.00000000000453e-06 	1.01006700077429 	0 	0.921425255665598 	0.0052014679365245 	179.937389116606
1.00000000000453e-06 	1.0143469141712 	0 	0.921641044083175 	0.00970958557193569 	89.6409026719704
1.00000000000453e-06 	1.01878361332929 	0 	0.922007517658036 	0.0135637284594448 	55.1581136752702
1.00000000000453e-06 	1.02338284177015 	-3.46944695195361e-18 	0.922514077600416 	0.0166382898632874 	36.8879737438241
1.00000000000453e-06 	1.02815055341735 	-6.93889390390723e-18 	0.923136685657725 	0.0193466235698479 	26.4186286617144
1.00000000000453e-06 	1.03309292030413 	-6.93889390390723e-18 	0.923855206466254 	0.0218292605065093 	20.0764111812105
1.00000000000453e-06 	1.03821634056339 	-6.93889390390723e-18 	0.924655001605836 	0.0241101929464584 	15.983455377561
1.00000000000453e-06 	1.04352744671036 	-1.04083408558608e-17 	0.925527203345262 	0.0261984706935674 	13.1773929086047
1.00000000000453e-06 	1.04903311422874 	-1.04083408558608e-17 	0.926467308249427 	0.0281073816719819 	11.1531547980465
1.00000000000453e-06 	1.05474047047132 	-6.93889390390723e-18 	0.927473255930453 	0.0298531334094424 	9.63224389022984
1.00000000000453e-06 	1.06065690388671 	-3.46944695195361e-18 	0.928544217875783 	0.0314521230091394 	8.45213283108374
1.00000000000453e-06 	1.06679007358401 	-3.46944695195361e-18 	0.929679981039377 	0.0329194784144373 	7.51273283111329
1.00000000000453e-06 	1.07314791924792 	-6.93889390390723e-18 	0.93088061167784 	0.0342685332945671 	6.74941020175986
1.00000000000453e-06 	1.07973867141705 	-3.46944695195361e-18 	0.932146256502781 	0.0355107659307001 	6.11868723686076
1.00000000000453e-06 	1.08657086213875 	0 	0.933477023143715 	0.0366559310980259 	5.59027900522066
1.00000000000453e-06 	1.09365333601424 	0 	0.934872907632351 	0.0377122538066022 	5.14245115261349
1.00000000000453e-06 	1.10099526164836 	3.46944695195361e-18 	0.936333749228653 	0.0386866274400787 	4.75920080160679
1.00000000000453e-06 	1.10860614351884 	6.93889390390723e-18 	0.937859201337244 	0.0395847940841006 	4.42848146106695
1.00000000000453e-06 	1.11649583428022 	3.46944695195361e-18 	0.939448713364613 	0.0404115004734781 	4.14104887770115
1.00000000000453e-06 	1.12467454751866 	6.93889390390723e-18 	0.941101522343848 	0.0411706297791134 	3.88968871222591
1.00000000000453e-06 	1.13315287097387 	1.73472347597681e-17 	0.942816653965238 	0.0418653121405688 	3.66868602031948
1.00000000000453e-06 	1.1419417802455 	2.08166817117217e-17 	0.944592931773329 	0.0424980174470272 	3.47345205428891
1.00000000000453e-06 	1.15105265300152 	1.38777878078145e-17 	0.946428992794984 	0.0430706336544603 	3.30025602932966
1.00000000000453e-06 	1.1604972837072 	1.04083408558608e-17 	0.948323307562028 	0.0435845335346719 	3.14602858745824
1.00000000000453e-06 	1.17028789889366 	1.38777878078145e-17 	0.950274202196459 	0.0440406323890428 	3.00821532407869
1.00000000000453e-06 	1.1804371729856 	1.73472347597681e-17 	0.952279880132987 	0.0444394389713527 	2.88466600276831
1.00000000000453e-06 	1.19095824470904 	2.42861286636753e-17 	0.954338441190449 	0.044781101639995 	2.77354971977176
1.00000000000453e-06 	1.20186473410003 	2.42861286636753e-17 	0.956447895906967 	0.0450654515695299 	2.67328930083821
1.00000000000453e-06 	1.21317076013637 	2.08166817117217e-17 	0.958606173242037 	0.0452920446593112 	2.58251021329431
1.00000000000453e-06 	1.22489095901542 	2.08166817117217e-17 	0.960811120490771 	0.0454602035507174 	2.500000614488
1.00000000000453e-06 	1.23704050310128 	2.08166817117217e-17 	0.963060496914913 	0.0455690609101304 	2.42468007763385
1.00000000000453e-06 	1.24963512056619 	2.42861286636753e-17 	0.965351965074865 	0.0456176049374414 	2.35557521259261
1.00000000000453e-06 	1.26269111575139 	2.77555756156289e-17 	0.967683081165653 	0.0456047278687746 	2.29180092013203
1.00000000000453e-06 	1.27622539027388 	2.77555756156289e-17 	0.970051282938003 	0.0455292778490894 	2.23254639494198
1.00000000000453e-06 	1.29025546490643 	2.77555756156289e-17 	0.972453876445621 	0.0453901141347514 	2.17706519100972
1.00000000000453e-06 	1.30479950225895 	2.77555756156289e-17 	0.974888025031119 	0.0451861653779331 	2.12466869680729
1.00000000000453e-06 	1.31987633029101 	3.12250225675825e-17 	0.977350743298244 	0.0449164905142647 	2.07472236226718
1.00000000000453e-06 	1.33550546668544 	3.81639164714898e-17 	0.979838897109463 	0.044580341426848 	2.02664406715222
1.00000000000453e-06 	1.35170714411495 	3.81639164714898e-17 	0.982349209364949 	0.0441772262442711 	1.97990410227177
1.00000000000453e-06 	1.3685023364343 	3.81639164714898e-17 	0.984878271445948 	0.0437069719818832 	1.93402631997841
1.00000000000453e-06 	1.38591278583198 	4.16333634234434e-17 	0.987422560563172 	0.0431697853075802 	1.88859009297551
1.00000000000453e-06 	1.40396103097652 	4.16333634234434e-17 	0.98997846244412 	0.042566310274159 	1.84323277636515
1.00000000000453e-06 	1.42267043619387 	3.81639164714898e-17 	0.992542297508889 	0.0418976816934026 	1.7976523695238
1.00000000000453e-06 	1.44206522171365 	3.12250225675825e-17 	0.995110348367564 	0.041165572574534 	1.75161003121362
1.00000000000453e-06 	1.46217049502345 	3.12250225675825e-17 	0.997678886743169 	0.0403722337167815 	1.70493202434449
1.00000000000453e-06 	1.48301228337162 	2.77555756156289e-17 	1.00024419847163 	0.0395205230275435 	1.65751059636098
1.00000000000453e-06 	1.50461756746086 	2.42861286636753e-17 	1.00280260558334 	0.0386139217204806 	1.6093033234148
1.00000000000453e-06 	1.52701431637603 	2.77555756156289e-17 	1.00535048438042 	0.0376565345082533 	1.56033058557215
1.00000000000453e-06 	1.55023152379144 	3.46944695195361e-17 	1.0078842784342 	0.0366530711943423 	1.51067104377684
1.00000000000453e-06 	1.57429924550461 	3.81639164714898e-17 	1.01040050575929 	0.0356088075278717 	1.46045519715094
1.00000000000453e-06 	1.59924863834497 	3.46944695195361e-17 	1.01289576019209 	0.0345295237342371 	1.40985727953656
1.00000000000453e-06 	1.62511200050782 	4.16333634234434e-17 	1.01536670812077 	0.0334214198138239 	1.35908591156611
1.00000000000453e-06 	1.65192281336593 	4.5102810375397e-17 	1.01781008249848 	0.0322910075221687 	1.30837407042148
1.00000000000453e-06 	1.67971578481283 	3.81639164714898e-17 	1.02022267622623 	0.0311449799273885 	1.25796906863972
1.00000000000453e-06 	1.70852689419381 	3.81639164714898e-17 	1.02260133728418 	0.0299900607127442 	1.20812333299033
1.00000000000453e-06 	1.73839343888296 	4.16333634234434e-17 	1.0249429688501 	0.0288328369107582 	1.1590868288979
1.00000000000453e-06 	1.76935408256639 	4.5102810375397e-17 	1.02724453858172 	0.0276795802812996 	1.11110194864315
1.00000000000453e-06 	1.80144890529426 	4.85722573273506e-17 	1.02950310076586 	0.026536063832647 	1.06440146381317
1.00000000000453e-06 	1.83471945536634 	4.85722573273506e-17 	1.0317158333566 	0.0254073807089321 	1.01920960417283
1.00000000000453e-06 	1.86920880311829 	4.5102810375397e-17 	1.03388010175081 	0.0242977725547787 	0.975745484273933
1.00000000000453e-06 	1.9049615966783 	5.20417042793042e-17 	1.03599358661706 	0.0232104738972734 	0.934227187993368
1.00000000000453e-06 	1.94202411976624 	5.8702771376512e-17 	1.03805420479892 	0.0221475808756603 	0.894874177970381
1.00000000001227e-06 	1.98044435161019 	1.38777878078145e-17 	1.04005973698255 	0.0211100897903815 	0.857910678423684
1.00000000001227e-06 	2.02024009608346 	1.38777878078145e-17 	1.04199253381354 	0.0201063228116983 	0.823831265897444
1.00000000001227e-06 	2.06000503604194 	6.93889390390723e-18 	1.04380651344014 	0.019158861844451 	0.793523783866885
1.00000000001227e-06 	2.09836474743797 	0 	1.04546551768771 	0.0182845102306693 	0.767505940117926
1.00000000001227e-06 	2.13536888877258 	0 	1.04697244667158 	0.0174801244135458 	0.745537175662645
1.00000000001227e-06 	2.17106536369585 	3.46944695195361e-18 	1.04834493729992 	0.016735777555109 	0.727155651274338
1.00000000001227e-06 	2.20550038302045 	3.46944695195361e-18 	1.04959820743396 	0.0160433311651236 	0.711978238102
1.00000000001227e-06 	2.23871852454379 	-6.93889390390723e-18 	1.05074533152465 	0.0153961869112031 	0.699696018835288
1.00000000001227e-06 	2.27076279075614 	-1.38777878078145e-17 	1.05179763532574 	0.0147890304637251 	0.690067618679578
1.00000000001227e-06 	2.30167466450941 	-1.38777878078145e-17 	1.05276495898989 	0.0142175944377659 	0.682911667736712
1.00000000001227e-06 	2.33149416271873 	-1.04083408558608e-17 	1.05365587433919 	0.0136784522401885 	0.678099338807322
1.00000000001227e-06 	2.36025988816627 	-1.04083408558608e-17 	1.05447786938345 	0.0131688461802189 	0.675547656795936
1.00000000001227e-06 	2.38800907947441 	-1.38777878078145e-17 	1.0552375027729 	0.0126865486292012 	0.675214004612975
1.00000000001227e-06 	2.41477765931296 	-1.38777878078145e-17 	1.05594053362863 	0.012229752702167 	0.677092008715631
1.00000000001227e-06 	2.44060028090273 	-1.38777878078145e-17 	1.05659203147322 	0.0117969880088162 	0.681208814607554
1.00000000001227e-06 	2.46551037287587 	-1.38777878078145e-17 	1.05719646980581 	0.0113870569247667 	0.68762366314196
1.00000000001227e-06 	2.48954018255081 	-1.38777878078145e-17 	1.0577578060739 	0.0109989871832947 	0.69642763636674
1.00000000001227e-06 	2.512720817678 	-1.38777878078145e-17 	1.05827955023411 	0.0106319971310423 	0.707744435549558
1.00000000001227e-06 	2.53508228671037 	-1.38777878078145e-17 	1.0587648236833 	0.0102854705718831 	0.721732065022198
1.00000000001227e-06 	2.55665353765073 	-1.04083408558608e-17 	1.05921641003907 	0.00995893865226741 	0.738585309511678
1.00000000001227e-06 	2.57746249552637 	-1.04083408558608e-17 	1.05963679901853 	0.00965206667456888 	0.75853890005159
1.00000000001227e-06 	2.59753609853934 	-1.04083408558608e-17 	1.06002822448008 	0.0093646440459472 	0.781871257941947
1.00000000001227e-06 	2.6169003329393 	-6.93889390390723e-18 	1.06039269753908 	0.00909657577983445 	0.808908683133678
1.00000000001227e-06 	2.6355802666639 	-1.38777878078145e-17 	1.0607320355338 	0.00884787407724847 	0.840029809893968
1.00000000001227e-06 	2.6536000817905 	-2.08166817117217e-17 	1.06104788749727 	0.00861864854675049 	0.875670087342397
1.00000000001227e-06 	2.67098310584103 	-2.08166817117217e-17 	1.06134175667761 	0.00840909360605011 	0.91632595681254
1.00000000001227e-06 	2.68775184198057 	-2.77555756156289e-17 	1.06161502054292 	0.00821947158874842 	0.962558298007698
1.00000000001227e-06 	2.7039279981488 	-3.46944695195361e-17 	1.06186894860281 	0.00805009011549164 	1.01499461494211
1.00000000001227e-06 	2.71953251516198 	-3.46944695195361e-17 	1.06210471827915 	0.00790127245419216 	1.07432935435477
1.00000000001227e-06 	2.73458559382185 	-3.46944695195361e-17 	1.0623234289647 	0.00777331997280153 	1.14132172977482
1.00000000001227e-06 	2.74910672106653 	-3.46944695195361e-17 	1.06252611432652 	0.00766646645866922 	1.21679051184582
1.00000000001227e-06 	2.76311469519732 	-3.46944695195361e-17 	1.06271375284857 	0.00758082508713836 	1.30160549473359
1.00000000001227e-06 	2.776627650214 	-3.46944695195361e-17 	1.06288727657455 	0.00751633014781281 	1.39667580892994
1.00000000001227e-06 	2.78966307929018 	-3.46944695195361e-17 	1.06304757801533 	0.00747267715683341 	1.50293594784892
1.00000000001227e-06 	2.80223785741905 	-3.81639164714898e-17 	1.06319551522816 	0.00744926645489889 	1.62133128886251
1.00000000001227e-06 	2.81436826325886 	-4.5102810375397e-17 	1.06333191515134 	0.00744515647156136 	1.75280593687188
1.00000000001227e-06 	2.82607000020648 	-4.85722573273506e-17 	1.0634575753738 	0.00745903315520839 	1.89829675823685
1.00000000001227e-06 	2.83735821672614 	-5.55111512312578e-17 	1.06357326461052 	0.00748920133706556 	2.05873833119041
1.00000000001227e-06 	2.8482475259599 	-6.24500451351651e-17 	1.06367972221933 	0.0075336019317107 	2.23508406506764
1.00000000001227e-06 	2.85875202464506 	-6.24500451351651e-17 	1.06377765711263 	0.00758985606970872 	2.42834887530941
1.00000000001227e-06 	2.86888531136304 	-6.24500451351651e-17 	1.06386774638382 	0.00765533396852338 	2.63967863461246
1.00000000001227e-06 	2.87866050414343 	-6.24500451351651e-17 	1.06395063388969 	0.00772724318728293 	2.87045142059189
1.00000000001227e-06 	2.88809025744591 	-6.24500451351651e-17 	1.06402692892538 	0.00780272847111446 	3.12241578240553
1.00000000001227e-06 	2.89718677854204 	-6.24500451351651e-17 	1.0640972050208 	0.00787897407670551 	3.39787242460385
1.00000000001227e-06 	2.90596184331819 	-6.24500451351651e-17 	1.06416199879586 	0.00795329939970373 	3.69990854460703
1.00000000001227e-06 	2.91442681151997 	-6.59194920871187e-17 	1.06422180874993 	0.00802323971584514 	4.03269940259598
1.00000000001227e-06 	2.92259264145801 	-6.93889390390723e-17 	1.06427709383195 	0.00808660548606464 	4.40190068274683
1.00000000001227e-06 	2.93046990419395 	-7.28583859910259e-17 	1.06432827164042 	0.00814151540195325 	4.81516954405912
1.00000000001227e-06 	2.93806879722526 	-7.63278329429795e-17 	1.06437571613271 	0.00818639952317964 	5.2828748135144
1.00000000001227e-06 	2.94539915768639 	-7.28583859910259e-17 	1.06441975477701 	0.00821996875772966 	5.81909251428163
1.00000000001227e-06 	2.95247047508335 	-6.93889390390723e-17 	1.06446066514683 	0.00824114462394292 	6.44304072640081
1.00000000001227e-06 	2.9592919035784 	-6.93889390390723e-17 	1.06449867107245 	0.00824893726365375 	7.18120385907507
1.00000000001227e-06 	2.96587227384056 	-6.93889390390723e-17 	1.06453393881671 	0.00824224749337477 	8.0705611650065
1.00000000001227e-06 	2.97222010447726 	-7.28583859910259e-17 	1.06456657401459 	0.00821954550772524 	9.16362673019771
1.00000000001227e-06 	2.97834361306218 	-7.97972798949331e-17 	1.06459661708416 	0.00817833568206879 	10.5365478074987
1.00000000001227e-06 	2.98425072677325 	-7.97972798949331e-17 	1.06462403156887 	0.00811423726069605 	12.302553493445
1.00000000001227e-06 	2.98994909265478 	-7.63278329429795e-17 	1.06464873710294 	0.00801936765588669 	14.635191806203
1.00000000001227e-06 	2.99544608751689 	-7.63278329429795e-17 	1.06467079828349 	0.00787801722847109 	17.8129098337802
1.00000000001227e-06 	3.00074882748522 	-7.97972798949331e-17 	1.06469030929765 	0.00765789374612875 	22.3005740605678
1.00000000001227e-06 	3.00586417721304 	-8.67361737988404e-17 	1.06470684530835 	0.00729642751397978 	28.8810646098182
1.00000000001227e-06 	3.01079875876789 	-9.0205620750794e-17 	1.06471968385029 	0.0066806719054868 	38.9175073787709
1.00000000001227e-06 	3.01555896020418 	-9.0205620750794e-17 	1.06472858876958 	0.00563336126950755 	55.1512493415724
1.00000000001227e-06 	3.02015094383281 	-9.71445146547012e-17 	1.06473397628977 	0.00397526807960967 	85.3143060148368
1.00000000001227e-06 	3.02458065419862 	-1.00613961606655e-16 	1.06473676225269 	0.00200713611992562 	167.941109733096
1.00000000001227e-06 	3.02885382577583 	-1.04083408558608e-16 	1.06473802229098 	0.000592326683303761 	658.173967405578
