/*--------------------------------*- C++ -*----------------------------------*\
  =========                 |
  \\      /  F ield         | OpenFOAM: The Open Source CFD Toolbox
   \\    /   O peration     | Website:  https://openfoam.org
    \\  /    A nd           | Version:  7
     \\/     M anipulation  |
\*---------------------------------------------------------------------------*/
FoamFile
{
    version     2.0;
    format      ascii;
    class       volScalarField;
    location    "9000";
    object      epsilon;
}
// * * * * * * * * * * * * * * * * * * * * * * * * * * * * * * * * * * * * * //

dimensions      [0 2 -3 0 0 0 0];

internalField   nonuniform List<scalar> 
15600
(
0.633878835275536
0.57771093408707
0.339933296662906
0.142408912390646
0.0402874684265787
0.0295195629281977
0.031178747387433
0.0231404201573737
0.0172532822502183
0.0139270584299522
0.0116880389805956
0.0104077368740371
0.00995965484767842
0.0102206268279298
0.011217374231554
0.0129535359113167
0.0154137247131624
0.0183985357574215
0.0218777552315097
0.0257804982520708
0.0299221767031529
0.034082615605097
0.038533057469842
0.0434582399554072
0.0486609706106509
0.0541210954205131
0.0598296351049293
0.0659192973688578
0.0825908358199437
0.105308831202457
0.124715314044818
0.141682963950553
0.1571849279522
0.171415835280427
0.184293196567423
0.195690647321123
0.205817331501897
0.214681212274825
0.222313190278336
0.228750257914364
0.234040426911032
0.238241667204575
0.241421115449107
0.243652338694848
0.245013342987026
0.245584002472763
0.245444188928234
0.244671936288733
0.243342149719956
0.241525548200439
0.239288009836505
0.236690107184409
0.233786940010824
0.23062809505064
0.227257799809199
0.223715118354907
0.220034339795472
0.21624512266323
0.21237244679451
0.208438413846168
0.20446104269606
0.200455216784361
0.19643372932792
0.192406251960025
0.188380146278316
0.18436085816006
0.180352008040522
0.176355555977823
0.172371935403441
0.16840014290938
0.164437835247515
0.160481325355787
0.156525657464241
0.152564460928978
0.148590060372717
0.144593055957415
0.140562629552546
0.136485522168386
0.132346960384093
0.128128289652229
0.123811371930964
0.119346959497335
0.114759182943222
0.110059339806923
0.105192434770091
0.1000642030853
0.0946166400713604
0.0887172496557709
0.0823012987248598
0.0751727370575902
0.0670753065225586
0.0568591566520713
0.0507508216350729
0.0557293209768201
0.062589626658022
0.0720265674690332
0.0828003451016767
0.095446020542708
0.110794166436237
0.129651443929215
0.15002328255805
0.17191995514825
0.194802675116078
0.217990845586557
0.237352584469455
0.255924827619092
0.276036636809653
0.298995602170669
0.327513468185481
0.368258668436274
0.432373596664043
0.512295961624806
0.612838250120089
0.751906924563022
0.922043598687063
1.03890754319379
0.864814154314741
0.670803309880002
0.54602166539315
0.595797632064795
2.29886585062869
2.10828511493742
1.41655712852599
0.603717315178816
0.159593934594154
0.107848140668481
0.113599323451431
0.0850848128100371
0.0634337974109515
0.0510996270610722
0.0428160143104043
0.0380742535009573
0.0363703708400646
0.0372947317453384
0.0409523275386538
0.0473568843480323
0.0563936600641802
0.0673538814227465
0.0800351753502312
0.0940038098943645
0.108450749278331
0.122764305175275
0.137711633333383
0.153554262020898
0.169859031618384
0.187027527177082
0.207026492629665
0.238747572108603
0.295621838148863
0.355946339277463
0.404355639828067
0.445745974631992
0.482649401656712
0.515962327168965
0.545870088989995
0.572085908170133
0.594901140525485
0.614502007644233
0.631093686193239
0.644866729820542
0.656012278331944
0.664722030788521
0.671189188277155
0.675605796125957
0.678161097118437
0.679038875040239
0.678415678962285
0.676458991127156
0.673326057304875
0.669162966794168
0.66410421414198
0.658272461983438
0.651778669074639
0.644722360058196
0.637192127859972
0.629266189959253
0.62101315212671
0.612492439242905
0.603753964818763
0.594841811181433
0.585792454525394
0.576635443581245
0.567395627809874
0.55809194938177
0.548738403483302
0.539344747784513
0.52991672484483
0.520456324496696
0.510961987556564
0.501428719449291
0.4918481888771
0.482208642529131
0.4724949033752
0.462687986186674
0.452765054539408
0.442698486014664
0.432455991821329
0.421998526606227
0.411281152604085
0.400248422710341
0.388841202125528
0.376970503032365
0.364790416268595
0.352268540913027
0.339165961078103
0.325233436334278
0.31024505073117
0.293863887748808
0.275744582821656
0.255401816414186
0.231832302569001
0.201649716952359
0.179524111242182
0.188147728894682
0.209236965330913
0.238876579678814
0.273732404273206
0.31525098991495
0.366031107766232
0.428338310151847
0.497040031868329
0.571657490766988
0.650750107002722
0.732119667073348
0.804490080663903
0.875314671261565
0.951963320399717
1.0392890112021
1.14633686202783
1.29493422779373
1.52046449036418
1.80253759478626
2.15284567681107
2.61405788600958
3.1557901443474
3.57081094303762
3.37495181516059
2.87694331380036
2.34832762657796
2.2751527357597
3.22467130030186
2.87236040184343
2.25258059396421
1.24723194488222
0.33560963865443
0.194641699777218
0.199317274552668
0.153450344101093
0.116074709187123
0.0937110660825257
0.0785430570095305
0.0696028314354157
0.0661281251637566
0.0673321343191396
0.0732280690985044
0.0835000605213887
0.0974067157692746
0.113183391447176
0.129807808828444
0.146078507781202
0.160800458565641
0.173588807636236
0.18587687663219
0.198735227492606
0.212739076149162
0.229506305615907
0.251796017915521
0.281834151319431
0.326559707604294
0.37294271242201
0.411366708984602
0.444911091870129
0.474703206962224
0.50083618409675
0.52323828449147
0.543242489218643
0.560852328831797
0.576203952254721
0.589421681082564
0.600622682521795
0.60992518287467
0.617448889605729
0.623315607403793
0.627648046720687
0.630568711939474
0.632198387800035
0.632654852055768
0.632051642352342
0.630497089394114
0.628093543859595
0.624936846857954
0.621115970130046
0.616712857445367
0.611802407780834
0.606452591517239
0.600724667636619
0.594673433215066
0.588347555391588
0.581789511352839
0.575036739259704
0.568121739832815
0.56107210031385
0.553911238359061
0.546658522381614
0.539329515948498
0.531936334574901
0.524487868870004
0.516989960248451
0.509445536965295
0.501854704032366
0.494214789026385
0.486520321009195
0.47876296226414
0.470931337811968
0.463010819152953
0.45498312891572
0.446825919515337
0.438512007747125
0.430008625986037
0.421276048742574
0.412266489586603
0.402937762129904
0.393008210553663
0.382539729980966
0.371535811122102
0.359822618319347
0.347196243904705
0.333360188404314
0.317970165231362
0.300443417545906
0.280178730681822
0.253875563143636
0.233580151360697
0.238350558012371
0.255202165370324
0.282752890778895
0.318616600718578
0.363149568728782
0.418375081262511
0.485794904025825
0.562793903604056
0.647930617086003
0.740106189758494
0.837468005973993
0.934481872307025
1.03491048156148
1.1454029619331
1.27216898577313
1.42365729101719
1.61666426938652
1.8729534132537
2.17636025557834
2.51500224564603
2.87538241436069
3.21322311546131
3.44956038743317
3.45602341115163
3.44959332274295
3.44555596424056
3.45267601234327
2.78184264470605
2.48518122797364
2.17130094933279
1.65965219486488
0.624229920229398
0.270554001494006
0.242838685901248
0.19496703394004
0.152521493510902
0.124236847141151
0.104300842287647
0.0919597114391599
0.0864162726077384
0.086546678970279
0.0918017784840571
0.101005956514641
0.112508334868005
0.124234910405658
0.135296132627524
0.145125656888143
0.153553449365986
0.161105576849609
0.169172997751669
0.178719637378557
0.190528704097246
0.206056430600167
0.226998329494839
0.253965703653655
0.288496002460893
0.322791318882931
0.351853398731929
0.377503902303552
0.400237881117062
0.419918755353912
0.437254985042188
0.452827980331545
0.466623602848347
0.478731457691962
0.489229649007621
0.498196023212616
0.505711126000037
0.511858368987809
0.516723859444646
0.520395485945783
0.522961872140917
0.524511231631347
0.525130298897383
0.524903368067046
0.523911488368204
0.522231824489354
0.519937181129774
0.517095671022939
0.513770518810274
0.510019987244143
0.505897394520907
0.501451222067904
0.496725288115325
0.491758872175349
0.486586793672748
0.481239939088735
0.475745530895101
0.470127211640467
0.464405325456234
0.45859722428722
0.452717391807038
0.446777664311745
0.440787420101417
0.434753725179899
0.428681450106536
0.422573361023654
0.416430173108201
0.410250578035123
0.404031215024325
0.397766622540917
0.39144909101141
0.385068524006052
0.37861209415675
0.37206400689507
0.365404764107618
0.358610911453434
0.351652728461131
0.344508802974063
0.337036003073503
0.329082228937378
0.320741582648126
0.311946896644182
0.302571252074402
0.292436017837221
0.281308233485263
0.268818261681039
0.254591357919771
0.236641488110648
0.221578770733582
0.221069444525503
0.230224952292946
0.2487867942407
0.275327120846903
0.309419546816688
0.351945000917684
0.403530051527021
0.463111781480833
0.529463242123024
0.601755920669987
0.678772576593052
0.758649917766371
0.842822978921378
0.935134024281375
1.04011617515874
1.16323944044866
1.31281863695583
1.49576189406059
1.70286585076317
1.91976383605491
2.12523103933069
2.29866093239139
2.43872999028998
2.52705547094899
2.61017575148642
2.80100672567491
2.92711407329998
2.23187214881859
2.03833835679379
1.87934376053478
1.76991674552371
0.966031306305419
0.358152681024352
0.246117744685091
0.198891706255723
0.160557887272628
0.132149960773656
0.111193071220861
0.0977132203665945
0.0909672739711573
0.0898102642155041
0.093305685865266
0.0999484605828887
0.108039053033332
0.116057907040543
0.123501057311938
0.130182766667597
0.136278206948805
0.142405881783657
0.149538922913907
0.158414827472766
0.169836810105285
0.18501937726881
0.205085815782041
0.230083807837887
0.258488157905357
0.285145103106115
0.308238677083554
0.328842332001628
0.347129851046039
0.363187426259401
0.377526818884144
0.390428543101671
0.40189194530886
0.411982547909168
0.420757478558243
0.428275935966247
0.434600041519761
0.439795012159257
0.443928711234054
0.447070904456371
0.449292319208358
0.450663708960094
0.451254945476343
0.45113422333929
0.450367377256371
0.449017338721223
0.447143720792366
0.444802524415467
0.442045949273018
0.43892230905074
0.435476017825749
0.431747669004673
0.427774168482696
0.423588695933919
0.419220971733432
0.414697470985451
0.410041710852223
0.405274347951181
0.40041333020912
0.395474185777655
0.390470125846576
0.385412208075513
0.380309495257496
0.375169182628609
0.369996702742747
0.364795812957712
0.359568653789722
0.354315793981613
0.349036229418747
0.343727382011442
0.33838501241105
0.333003173755626
0.327573976748231
0.322087519692344
0.31653134881949
0.310890494364086
0.305145480664936
0.299282640101418
0.293226297197193
0.286853484031995
0.280190509196801
0.273223199205769
0.265879732159155
0.258055310839753
0.24959967857852
0.240298954765523
0.22989953823148
0.21729647580876
0.205669278323859
0.202295522503809
0.206899068618923
0.219471291369239
0.239116643012434
0.265208538384517
0.298000485249126
0.33765497328285
0.383617341472834
0.434981409797624
0.491074170119655
0.551028246190223
0.614196919987882
0.68123551847882
0.754278617764831
0.836264987138865
0.930681816546023
1.04180910556857
1.17136476531302
1.31416666275054
1.46044771822134
1.59496958135086
1.70787829923983
1.81115449227771
1.92131706381203
2.01486183407318
2.17159667230066
2.28767397731665
1.82165583842863
1.70017900291329
1.6066629776002
1.70046643174066
1.228349108467
0.481521219875758
0.245868020445877
0.187767135845208
0.153420785945534
0.127142045216869
0.107404061512837
0.0945497276129195
0.0878666332881158
0.0863270341755391
0.0888714016556912
0.0939927614152062
0.100179535261636
0.106335896437498
0.112141789496353
0.117556641239187
0.122856254228098
0.128610870294349
0.135543520610793
0.144277892429707
0.155579351774542
0.170437269724032
0.189578479974431
0.212542916686611
0.236641166650331
0.258493180027758
0.277793930010697
0.295152154714093
0.310627000698833
0.324386760831306
0.336757461534137
0.347892775309667
0.357801659331416
0.366535455100862
0.374139844621705
0.380663405104165
0.386157575876558
0.390676852806854
0.39427823440681
0.397020583422837
0.398963774409791
0.400167886311639
0.400692405385943
0.400595534893582
0.399933596449882
0.398760552442757
0.397127637297947
0.395083094804757
0.392672002553791
0.389936187813229
0.386914203126273
0.383641427571496
0.380150049481041
0.376469134491915
0.372624857900905
0.368640611415412
0.364537265148672
0.360333272308387
0.356044776330315
0.351685858769738
0.347268638173145
0.342803404798254
0.338298757395026
0.333761718022676
0.329197828894626
0.324611236123032
0.320004750845927
0.315379901944624
0.310736953121421
0.306074924300774
0.301391546184002
0.296683256165367
0.291945046712168
0.287170461739863
0.28235122499462
0.27747735794552
0.272535684390052
0.267516768252541
0.262377765014605
0.257035959734339
0.251483320492137
0.245720566457433
0.239708891300316
0.233387993395996
0.226663497604502
0.219414138424945
0.211471384658274
0.202257281181846
0.193173470438731
0.188767323351214
0.19073292968653
0.199483255317775
0.21448523902565
0.235129520752178
0.261358544290778
0.293084700878799
0.329924426607499
0.371195514969077
0.416333561592363
0.464673317233924
0.51602039713794
0.570786952423757
0.630245099392172
0.69634263952709
0.771435012722755
0.857936619944113
0.955725275467833
1.06150833504616
1.1689623731089
1.26774199788034
1.35233205387074
1.43467863259258
1.54025736546584
1.63815128214325
1.7595319792216
1.84275412156466
1.53334262740149
1.45340252804845
1.39008120580751
1.5617552972245
1.36218396777768
0.631963428302441
0.26024827373305
0.178091985697096
0.144370049511166
0.120010430141817
0.101799676545294
0.0899582056662062
0.0837368856361544
0.0821872071254466
0.0842291049055813
0.0884440447281204
0.0935147590084944
0.0986148959320185
0.103531462795142
0.108302582093428
0.113239051396982
0.118852600695184
0.125722127685009
0.134398403125146
0.145573386515571
0.160028581195754
0.178175505962871
0.199190324331834
0.22013552136446
0.238814413876884
0.255565221016529
0.270717692297438
0.284293252927527
0.296469565213822
0.307454891724424
0.317343536911559
0.326149581382388
0.333915156729902
0.340678810215009
0.346482290842046
0.351370130649103
0.355389839783029
0.358591310978155
0.361026244144106
0.362747358296323
0.363807664328037
0.364259742766519
0.364155121756598
0.363543735835007
0.362473493250132
0.360989941108709
0.359136025963443
0.356951931042775
0.35447499590161
0.351739701216621
0.348777751477283
0.34561798467165
0.342286545987524
0.338807042715662
0.335200621501502
0.331486199907258
0.327680574049308
0.323798510263194
0.319852956332415
0.315855139911923
0.311814687522845
0.307739746365068
0.303637090472135
0.299512212186788
0.295369403075955
0.291211817011989
0.287041527090307
0.282859555306338
0.278665907018368
0.274459555155507
0.270238459780653
0.265999477301104
0.261738390348551
0.25744966293905
0.253126582904778
0.248760197280386
0.244343981416716
0.239852584086962
0.235232401371838
0.230463417799353
0.225550236157851
0.22047345458057
0.215200980488048
0.209676961200535
0.203837766942496
0.197575373926076
0.190632492773694
0.183510740996104
0.178984858966865
0.179423322287043
0.185638725865828
0.197398850433162
0.214191817831233
0.235813260154546
0.26203777523468
0.292541255316876
0.326786323258736
0.364289110897648
0.404515298064558
0.447461061691208
0.493463172262683
0.54334965774216
0.598472104370681
0.660512817445472
0.730932521186058
0.808906118189545
0.892090801083778
0.976281871417914
1.05427569086013
1.12252442269444
1.19086119776517
1.28435547810526
1.3798709489761
1.48284818313665
1.54426866466591
1.32557200768775
1.26943473640358
1.22295209087694
1.40831645470864
1.41789847906043
0.787448266494693
0.293868466290783
0.174476752750886
0.137604068354095
0.114284080884367
0.0972398767037054
0.0862292217533777
0.0804182251394029
0.0788830843345909
0.0805531789113425
0.0841143846794844
0.088413026487631
0.0928000139540908
0.0971346131531808
0.101502982189893
0.106223375074356
0.11175464151732
0.118583535181669
0.127200219104381
0.138208048710711
0.152203731244809
0.169352315307519
0.188622475670914
0.207208429512612
0.223685498302849
0.238633318318265
0.252213766906922
0.264439422840824
0.275467119545171
0.285434565378218
0.294405536440953
0.302396489230879
0.309443185502151
0.31557933452015
0.320841969060235
0.325270860778204
0.328908697396965
0.331800469848531
0.333992931794738
0.335533855769645
0.336471355917079
0.336853215828994
0.336726311206562
0.336136107831754
0.335126259679024
0.333738298508705
0.332011411702057
0.329982290201424
0.327685052560495
0.325151259715656
0.322409902663817
0.319487392154478
0.316407719797797
0.313192578692337
0.309861433373101
0.306431724136016
0.302918975757938
0.29933688534102
0.295697505106259
0.292011341136632
0.288287463392901
0.284533617431857
0.280756324574355
0.276960969866845
0.273151881148814
0.269332393807923
0.265504910580752
0.261670940522905
0.257831142260259
0.25398532996942
0.250132508443759
0.246270827278801
0.242397631438892
0.238509310973327
0.234601451817008
0.230668108702617
0.226704990561975
0.22269692481964
0.218609304449683
0.214422116289239
0.210139599175034
0.205754615017742
0.201253870406146
0.196608832115216
0.19179376942814
0.186745127602064
0.181402940992654
0.175816300264323
0.171591232276599
0.171175016728754
0.175660988833686
0.185070996856115
0.199019536421375
0.217244835589305
0.239448547649857
0.265327194235328
0.294437660418588
0.326357013112602
0.360642839001228
0.397376948448396
0.436873322188812
0.479720269786279
0.526901276939517
0.579673526415138
0.638961888558534
0.703679017069221
0.772019090753975
0.841081634327185
0.905655927920836
0.963160915992445
1.02132556359788
1.10212825856559
1.19080236269002
1.28279709889747
1.33294408101256
1.16915984315887
1.12762263343285
1.09279604370969
1.26163348810818
1.41810818802081
0.933146058490364
0.349418499073219
0.178009900762259
0.133804322854416
0.110471064122738
0.0941228320051517
0.0836542326338308
0.0780972313572005
0.07651045207624
0.0778365206501904
0.080859851674208
0.0845591620523548
0.0884068342122307
0.0923129380137269
0.0963926418584831
0.100958092589765
0.106422495396365
0.113207021807936
0.12174550721882
0.132549904628711
0.146058506957005
0.162252394997077
0.180012693219803
0.196802606912724
0.211693201840199
0.22531985347957
0.237743779638869
0.248974055255713
0.25914176212835
0.268340723584516
0.276617681691627
0.283989927791536
0.290488624852497
0.296144022516373
0.300989757626025
0.305062203283801
0.308400615379613
0.311046510780437
0.313043142595143
0.314434784602736
0.315266083715771
0.315581420391819
0.315424360037361
0.314837177408626
0.313860475700278
0.312532893713051
0.310890896506288
0.308968632012014
0.306797867717377
0.304408005987266
0.301826014016581
0.299076502412184
0.296181842296481
0.293162274032395
0.290035978063239
0.286819257288833
0.283526646380585
0.280171000698567
0.276763658129502
0.273314538410863
0.269832248045367
0.266324185363079
0.262796636664158
0.25925486201414
0.255703173311311
0.252145000658809
0.248582954529284
0.245018871951226
0.241453866357434
0.237888350089726
0.234322080842257
0.230754149790372
0.22718304706922
0.223606582683649
0.22002204208095
0.216425715006642
0.212815113156405
0.209181440556254
0.205502772938355
0.201763068543637
0.19796620826704
0.194112998629678
0.190203105397389
0.18622779198786
0.182187245824949
0.178051581376681
0.173881592024806
0.16950652475432
0.165760713407636
0.164909995116809
0.168201884117332
0.17586282311119
0.187638903188975
0.203261876436668
0.222400834660294
0.244760509341616
0.269960865927706
0.297625850605272
0.327381142101095
0.35934710359741
0.393830330830245
0.431283838100294
0.472456651823926
0.518323679780331
0.569486674188979
0.624788318595808
0.682766238149066
0.741346851404773
0.796602998461884
0.846431306829116
0.896798639033815
0.96617418626698
1.04620052327099
1.12960514436326
1.17406550928486
1.04639162387681
1.01461750520215
0.989130082569306
1.13004273294256
1.38046670732082
1.05400704454857
0.428431953653983
0.189593646353017
0.133000323500904
0.108427984313628
0.0923052795216565
0.0820990943781521
0.0766340383545494
0.0749171680514324
0.0758974487195268
0.0784448213290555
0.0816441440316613
0.0850534738501029
0.0886186725335447
0.0924711965168919
0.0969101927445618
0.102309454622103
0.109039129731619
0.117479319890641
0.128054531003843
0.141071350325579
0.156380221209232
0.172854821209702
0.188258854581412
0.201975916372225
0.214611669903713
0.226166745929199
0.236646616681607
0.246158494450229
0.254767950354693
0.262511469953817
0.269406334927007
0.275480283403371
0.28076100930493
0.285279652125857
0.289070123355106
0.292169213623709
0.294615962925581
0.296451137774058
0.29771653120549
0.298454330622254
0.298706497919538
0.298514238350236
0.29791754211707
0.296954817376006
0.295662609941686
0.294075403523642
0.292225483206178
0.290142898178034
0.287855418326382
0.285388511143074
0.282765432620978
0.280007323151832
0.277133310390622
0.274160584414997
0.271104563410489
0.267979003735395
0.264796092022714
0.261566592073493
0.258299945013138
0.255004371526823
0.251686972745892
0.248353823862049
0.245010058778861
0.241659947880391
0.23830696606404
0.234953857081276
0.231602685577168
0.228254892296261
0.224911329498171
0.221572316429345
0.218237653597342
0.214906700182129
0.211578349276544
0.2082511884515
0.204923220503945
0.201593448945407
0.198257324292956
0.19490164306264
0.191515225181904
0.188102394905263
0.18466935710345
0.181224932566029
0.177774928262089
0.174337684463371
0.170909300679967
0.16762255568414
0.164210146209536
0.161001582506564
0.159982774304293
0.162452185713686
0.168790252790575
0.178867185905498
0.192437442579665
0.209163860873152
0.228757242148868
0.250881449962479
0.275197200999314
0.301382597379756
0.329573891385436
0.360073496529092
0.393255113060865
0.429714326234824
0.47023122073366
0.515203230061274
0.563494791975613
0.613889257282052
0.664851311154258
0.713287805838464
0.757305360131068
0.801443382166509
0.861012166809764
0.932085652245099
1.00767736620862
1.04884514757101
0.946674049380729
0.92193611245427
0.904361010221408
1.01551361247626
1.31841658762394
1.14244374253352
0.52814756937947
0.210676458856916
0.135327391382135
0.1079942726026
0.0916086433099481
0.081403626975177
0.0758784468498246
0.0739555663446614
0.0745776837066511
0.0766844412866501
0.079445162420908
0.0824791936880332
0.0857570262291123
0.0894175931706345
0.0937435204810276
0.099074070992612
0.105737026364842
0.11406150609491
0.124391994551514
0.136928439030728
0.151433632950533
0.166822795351543
0.18114715149595
0.193981568251226
0.205864329368871
0.216759318900957
0.226667336768645
0.235675064568992
0.243829262696065
0.251159749293607
0.257683339714654
0.263425160926143
0.26841098596067
0.272670110020811
0.27623467031043
0.279139707257254
0.281422523916537
0.283122154364301
0.28427866882105
0.28493254613631
0.285124063808181
0.284892775962653
0.284277065233117
0.283313784426276
0.282037985032891
0.280482724683368
0.278678942044399
0.276655426026099
0.274438727360241
0.272053205244897
0.269521096875244
0.266862608177763
0.26409601381826
0.261237738172465
0.258302508908187
0.255303468258442
0.252252269250398
0.249159212335717
0.24603334671526
0.242882571527108
0.239713734397793
0.236532723709793
0.233344552918187
0.230153438602639
0.226962870254768
0.223775676755834
0.220594083347402
0.217419771435827
0.214253924359251
0.211097290410843
0.207950217632941
0.204812741392832
0.201684601648519
0.198565409610778
0.195454511879495
0.192352162670238
0.189256787312448
0.186161334419358
0.183059276744998
0.179956041997774
0.176861721894813
0.173791728166009
0.170762627194864
0.167805616275333
0.16493701858384
0.162330072598552
0.159686564037288
0.157012715740882
0.155994309060045
0.157906388665841
0.163235678433887
0.171961946429787
0.183878170038653
0.198658324268456
0.216021100893681
0.235662453579538
0.257272600366614
0.280571208375944
0.305699117688725
0.332954034170395
0.362661649544363
0.395314888548668
0.431555341339064
0.471647929775632
0.514525666583258
0.559163918282667
0.604382031491759
0.647624265587554
0.687048683650736
0.726040760259351
0.777288672900049
0.839830039442448
0.908018288733971
0.94673685618531
0.863499215355473
0.844111128949023
0.833235467161537
0.917475082009173
1.24113248896757
1.19693088499708
0.641023972415189
0.243369563618753
0.141215281319973
0.109125963076728
0.0919188947110898
0.0814562975656178
0.0757241257136227
0.07352063168614
0.0737653392258431
0.0754501754697203
0.0778105068228157
0.0805093342761597
0.083533087613707
0.087021858188148
0.0912399631056812
0.0964958602196723
0.103080622482373
0.111275702886791
0.121354549453817
0.13343284097407
0.147218921430725
0.161696833731487
0.175175493909888
0.187340743235121
0.198649047124373
0.209041638517832
0.218513674750388
0.227134493067014
0.234937862799194
0.241948906310115
0.248183728621565
0.253665428872385
0.258418330242179
0.262470384258883
0.265852485751418
0.268598482422167
0.270744518374842
0.272328484963844
0.273389322113418
0.273966386968276
0.274098846001643
0.273825155678902
0.273182619308019
0.272207033339756
0.270932421896342
0.269390849662592
0.267612318744719
0.265624694814349
0.26345365397636
0.261122745226398
0.258653450110836
0.256065272751549
0.253375839359666
0.250600985698189
0.247754902409257
0.244850248112228
0.241898250220552
0.238908834943264
0.235890730197618
0.23285156693141
0.229797976746673
0.226735683782621
0.223669589362717
0.220603850822109
0.217541953170973
0.214486777741175
0.211440663452643
0.208405470722088
0.205382635726425
0.202373239966953
0.199378061446147
0.196397671202542
0.193432483494033
0.19048292955859
0.187549428900674
0.184633291704082
0.181735115820973
0.178852287410583
0.175982362994749
0.17313225701209
0.17031501422973
0.167550859666496
0.164864327248104
0.162295718498317
0.159877076179846
0.157801614904472
0.155774637923876
0.153603175861885
0.152689391178471
0.154236177417694
0.158794599227297
0.166435813110293
0.176998433078454
0.190178855140193
0.205706737815432
0.223302875159732
0.242681758845694
0.263596819679081
0.286187862031245
0.310746583250489
0.33756883051971
0.367077627538424
0.399813953361502
0.435956834752702
0.474533118620812
0.514677142969441
0.555439081690066
0.59459700121111
0.630261612901097
0.664880562334611
0.709051909312822
0.763777661653155
0.824960292992037
0.861422288649322
0.792702866354715
0.777523131390205
0.772170301367318
0.834366445129468
1.15482302209316
1.21974151805434
0.755633335691992
0.290413759489731
0.151463951236496
0.111924220445811
0.0931978344154505
0.082198808188964
0.0761087549534638
0.073546671652684
0.0733874042899038
0.0746562737409095
0.0766382341635363
0.079026350390579
0.0818159066731056
0.0851434210199896
0.0892539950950316
0.0944281253646403
0.100924260100983
0.108980008756886
0.118807191961457
0.130456481118829
0.143606554987083
0.157323259144679
0.170138979168484
0.18179735609636
0.192669905448117
0.202683390494928
0.211826627220823
0.2201542112249
0.2276905424651
0.234457150442451
0.240469299505551
0.245748490228159
0.250317961771656
0.254204723610884
0.257438859495553
0.260053479547128
0.262084041406408
0.263567775784384
0.264542976059632
0.265048356052128
0.265122437778268
0.264803029657675
0.264126784130991
0.263128845416459
0.261842587977097
0.260299438692392
0.258528779985727
0.256557837738112
0.254411690361368
0.252113315244241
0.249683650601437
0.247141686624811
0.24450456642069
0.24178768033008
0.239004806203031
0.236168225025837
0.233288826615344
0.230376235835471
0.227438917580164
0.224484279147427
0.221518768046719
0.218547964302743
0.215576665999465
0.212608969309093
0.209648342169929
0.20669769517031
0.203759446669484
0.200835590472509
0.197927757220988
0.195037289757032
0.192165307587259
0.189312811451181
0.186480759582937
0.183670249184482
0.180882567905005
0.178119920720671
0.175384546233603
0.17267709379559
0.169998562087053
0.167357504615159
0.164769304708273
0.162257735350741
0.159853199574633
0.15760236627614
0.155549370300866
0.153894140042636
0.152362766989783
0.150647853286218
0.149899823299678
0.151221224822872
0.155192288003347
0.161956264126799
0.171398717560963
0.183245323466005
0.19723981461747
0.213123393785864
0.230631059999892
0.249544262114785
0.269999143100202
0.292280313495811
0.316664682153958
0.343527040191546
0.37333428477117
0.406211960718753
0.441295010843907
0.477853011955552
0.515077991251572
0.550937092958364
0.583430436282027
0.614239129849177
0.652346258165965
0.700054146539737
0.754684914024898
0.788856545035878
0.731501702933766
0.719698200233238
0.718727141598223
0.764231132088407
1.06444619427644
1.21531239653825
0.862096658930986
0.354207006027698
0.167317723447877
0.116655363598782
0.0954823086436888
0.0836202741844695
0.0770067480207373
0.0739992703670773
0.0734003169930502
0.0742478253178402
0.0758607329194343
0.0779509230644966
0.0805164491593428
0.0836865019238417
0.0876864751112601
0.0927710918050406
0.0991693991975971
0.107079301506101
0.116660147826767
0.127913732286459
0.140507015560171
0.153591582276568
0.16589011511289
0.177168905975468
0.187716749537774
0.197450491874569
0.206352132068897
0.21446349584748
0.221801858623071
0.228385768220164
0.234229575298793
0.239353504356786
0.243780006160442
0.247535483681815
0.250649574374302
0.253155038247972
0.25508704903894
0.256482587167556
0.257379710326586
0.257816894235914
0.257832410532589
0.257463798271538
0.256747418915222
0.255718102969197
0.254408890819276
0.25285087470805
0.251073060335905
0.249102290288779
0.246963267562806
0.244678595569263
0.242268844917086
0.239752647276181
0.237146799363688
0.234466364410639
0.231724810061525
0.228934127285683
0.226104941210272
0.223246635809797
0.220367461484859
0.217474639247303
0.214574459617663
0.21167237604172
0.208773091828901
0.205880641761039
0.202998467935056
0.200129492972397
0.197276188689196
0.194440647297946
0.191624648900245