/*--------------------------------*- C++ -*----------------------------------*\
  =========                 |
  \\      /  F ield         | OpenFOAM: The Open Source CFD Toolbox
   \\    /   O peration     | Website:  https://openfoam.org
    \\  /    A nd           | Version:  7
     \\/     M anipulation  |
\*---------------------------------------------------------------------------*/
FoamFile
{
    version     2.0;
    format      ascii;
    class       volScalarField;
    location    "9000";
    object      k;
}
// * * * * * * * * * * * * * * * * * * * * * * * * * * * * * * * * * * * * * //

dimensions      [0 2 -2 0 0 0 0];

internalField   nonuniform List<scalar> 
15600
(
0.000321015416444524
0.000292860656358469
0.000171300432349914
6.92724360128315e-05
1.8125655203367e-05
1.25258803216808e-05
1.31090152090813e-05
1.00610553264927e-05
8.0099937110671e-06
7.08230687803991e-06
6.63044241625379e-06
6.57201418708165e-06
6.9372428615027e-06
7.78872036156806e-06
9.28363993621425e-06
1.15652750652249e-05
1.48005388261005e-05
1.90984783125879e-05
2.46950138053695e-05
3.18049621193761e-05
4.05104214203875e-05
5.0734985768973e-05
6.26981780947631e-05
7.64211663463848e-05
9.12120364386002e-05
0.000106355771776113
0.000120883913976487
0.000133965526498994
0.000167306007378307
0.000213326335357162
0.000252638460220136
0.000287010189457975
0.000318412847642231
0.000347240699454472
0.000373326644787497
0.000396414703773823
0.000416928544020755
0.000434884296609039
0.000450344557579685
0.000463384263185584
0.000474100671763474
0.000482611214209216
0.000489051890638613
0.000493571727364954
0.000496328742874386
0.000497484739914193
0.000497201516434737
0.00049563714743918
0.000492943369920354
0.000489263440826859
0.000484730810852647
0.000479468183128288
0.000473587174439831
0.000467188233708234
0.000460360953549393
0.000453184466894477
0.00044572823393453
0.000438052334602401
0.000430207371097261
0.000422238115228533
0.000414181068228353
0.000406066379809887
0.000397919965475655
0.000389761417265211
0.000381605647730741
0.0003734636887074
0.000365342874193025
0.000357247174723344
0.000349177468313327
0.000341131722341355
0.000333105190042792
0.000325090402460456
0.000317077320588603
0.00030905303928153
0.000301002010367778
0.000292905192399649
0.00028474067086502
0.000276481586752666
0.000268098013237064
0.000259552161414492
0.000250807288685292
0.000241763632816826
0.000232470075925119
0.000222949503484151
0.000213090510333855
0.000202702142422049
0.00019166689848365
0.000179716378471341
0.00016671945121137
0.000152278973685481
0.000135875838644902
0.00011518076884855
0.000103139125648951
0.000112599327141447
0.000122997626737948
0.000135009394275964
0.000145604085405322
0.000155302755701362
0.000164926865484301
0.00017552978422077
0.000185081121241163
0.000194058506231718
0.000202213572167141
0.000209318717167097
0.000211914893159037
0.000211806548684684
0.000210356142701127
0.00020826069356942
0.00020680986895581
0.000208907363047351
0.000219874276561502
0.000237838027324163
0.000266451439923023
0.000316137042421725
0.000391245774220743
0.000467412840028416
0.000420674401563439
0.000338033636041158
0.000276796289843421
0.000301729928091468
0.0054758036756818
0.0050154361581551
0.00311703029564265
0.00131159465639145
0.000346683385806513
0.00023152876268905
0.000242393787505797
0.000187329864964641
0.00014874699244547
0.000131073542432807
0.000122345432858469
0.000120923179978375
0.000127229836574934
0.000142385723411649
0.000169217576070488
0.000210284468496914
0.000268506009616492
0.000345690913175589
0.000445676442754619
0.000571653479308792
0.00072413367807113
0.000900753129734333
0.00110349829607384
0.00133046441105979
0.00156920698371891
0.00180822299063691
0.00203642314915949
0.00227058434125314
0.00278273519721639
0.00342037108428135
0.00394166850065254
0.00438482631436825
0.00478102628407492
0.00513815947850821
0.00545678333965435
0.00573405385637942
0.00597787765714091
0.00618969888274694
0.00637128246812077
0.00652426000358369
0.00665029905546213
0.00675110950481935
0.00682845837825329
0.00688414097421626
0.00691996352229725
0.00693771193609785
0.00693913050760331
0.00692589865347375
0.00689961508954436
0.00686178427215129
0.00681380837981196
0.00675698138803391
0.00669248750967035
0.00662140124061964
0.00654469038874294
0.00646321969528954
0.00637775762259933
0.00628897871812331
0.00619745874033764
0.00610371465161912
0.00600818058322854
0.00591121850396533
0.0058131424519164
0.00571420014234377
0.005614585789418
0.00551444782848644
0.00541389069535211
0.0053129776573817
0.00521173304148632
0.00511014351470348
0.00500815938427474
0.00490569374152509
0.00480262294191239
0.0046987823868411
0.00459396706206879
0.00448792087018019
0.00438034010540668
0.00427084880304014
0.00415901322169993
0.00404428614639237
0.00392610062461178
0.00380304952588304
0.00367584396206195
0.00354471079570397
0.00340784897747182
0.00326250734242841
0.00310660135249219
0.00293615037543994
0.00274826495327788
0.00253694291835857
0.00229224310485074
0.00197793629185268
0.00178206874107766
0.00191503838752542
0.00208210215718105
0.00227504212789795
0.00244994995291687
0.00261429119388526
0.00278055821447544
0.00296261882352347
0.00312976631864762
0.00328755747912018
0.00343186378513484
0.00355748077906667
0.00361290503565141
0.00362579720459322
0.00361716359548546
0.00359813933102275
0.0035900331583091
0.00364142047738375
0.00383479146642936
0.00413462944305666
0.00459628502883539
0.00535640571785169
0.00643041347373341
0.00744616931147233
0.00691309585993867
0.00582780043132655
0.00490718072681677
0.00520810035762745
0.0176353232311227
0.0163998364594387
0.0124957804913255
0.00676852971323192
0.00197684526428981
0.00117080694449243
0.00121991420979848
0.000963440741529618
0.000770958641508509
0.00067870647458846
0.000632326020682326
0.000622297943304911
0.000650488483501478
0.000722144400763629
0.000849493129706256
0.00104112527904938
0.00130351973703225
0.00163550624370144
0.00203893745858287
0.00250729250612787
0.00302353055584277
0.00356844049142648
0.00413870630095586
0.00472460286240081
0.00530591858499895
0.00588162875015404
0.00647908189227615
0.00718404793924075
0.00832355596467267
0.00955276652551781
0.0105412331527621
0.0113826531938415
0.0121319667730388
0.0128041625804439
0.013403167748754
0.0139317636703897
0.0143987262216415
0.0148075616858269
0.015161692624226
0.0154641567418402
0.0157179295790207
0.0159259696665931
0.0160912706392339
0.0162168399850546
0.016305685256718
0.0163607781232712
0.0163850270982296
0.0163812466919787
0.0163521344144872
0.0163002506924374
0.0162280054915265
0.0161376479978676
0.0160312619643282
0.0159107638348235
0.0157779048220154
0.0156342747721187
0.0154813086706562
0.0153202912653136
0.0151523503468869
0.0149785015207984
0.0147996324143183
0.0146165056201595
0.0144297886153908
0.0142400402021354
0.014047722675515
0.0138532119188145
0.0136568011735165
0.013458705068209
0.0132590626519347
0.0130579390594999
0.0128553265935606
0.0126511430590343
0.0124452305024723
0.0122373484297007
0.0120271702569722
0.0118142673539074
0.0115981045500631
0.0113780057548617
0.0111531533068591
0.0109225154854011
0.0106849148814146
0.0104382927182343
0.010182555063166
0.00991794216783622
0.00964107484379443
0.00934678125428026
0.00902984311670668
0.00868229081222063
0.00829515434745141
0.00785532067314607
0.00733593088299284
0.00665216769779868
0.00615603634546816
0.00633584932764599
0.00672227757111878
0.00720807284898529
0.00769790106849164
0.00819323915475728
0.00871732682202859
0.00929047980048538
0.00985296083978465
0.0103980004274721
0.0109130840303962
0.0113795854682944
0.0116991240249769
0.0119129123250879
0.012070660560804
0.0122045623482918
0.0123619695836425
0.0126540071327971
0.0132591253407968
0.0140957358883446
0.015229364243694
0.0168283284073575
0.0188159010648253
0.0204312560013205
0.0197891151282015
0.0183247522417264
0.017217190185485
0.0175845191875106
0.026117819131064
0.0248895896805003
0.0209397069378283
0.0142813707722349
0.0059681942321623
0.00325072804755922
0.00321040091998632
0.00263937761429244
0.00216352675323705
0.00191092437400499
0.00177353084050111
0.00172563387750281
0.00177132387849979
0.00191794600887515
0.0021829512387112
0.00256690509985169
0.00305945834100223
0.00363623728874628
0.00428370957434182
0.00498146094240612
0.00570435583884393
0.00643700824365153
0.00718736440785034
0.00795220387718003
0.00872052753470381
0.00951078655862725
0.0103844876529372
0.0114681350824134
0.0130103029632105
0.0145695754634679
0.0158317240962948
0.0169177310764821
0.0178816598911548
0.0187418705592568
0.0195066806646933
0.0201845832462478
0.0207838875825578
0.0213093378577387
0.0217652831344658
0.0221556167492443
0.022484128007462
0.022754563783114
0.0229706890132967
0.0231362691771026
0.0232550546712271
0.0233307430693064
0.0233669478042559
0.0233671642022473
0.0233347429166255
0.0232728672782632
0.0231845376583649
0.0230725597977668
0.0229395391056434
0.0227878786537737
0.0226197812856339
0.0224372542937551
0.0222421173266532
0.0220360054421295
0.0218203682695191
0.0215965108499362
0.0213655842254793
0.0211285894194268
0.0208864035507468
0.0206397748286027
0.0203893332043907
0.0201356008548976
0.0198789977853253
0.0196198468717968
0.0193583776926609
0.0190947288972735
0.0188289495213469
0.0185609977569197
0.0182907390968634
0.0180179398346238
0.0177422614147332
0.0174632450980393
0.0171803021838813
0.0168926821427241
0.0165994593324847
0.0162994689642119
0.0159913305389808
0.0156729891692138
0.0153430100036658
0.0150011056335304
0.0146440487836101
0.0142663903553484
0.0138618251405218
0.0134213245528906
0.0129336139715551
0.0123825327904152
0.0117400565559899
0.0109020763450204
0.0102477088277349
0.0103635446037708
0.0108273307004798
0.0114682378969906
0.0121682798862975
0.0129100174742137
0.0137133443758734
0.0145935187456141
0.0154849055106549
0.0163637907992151
0.0172090818659505
0.0179904891305002
0.0186017147049211
0.0190738907505275
0.019469166035946
0.0198372154270144
0.020239308008897
0.0208084294443937
0.0217445647578909
0.0229573213684788
0.0244751231577144
0.0264344146999439
0.0287738958787821
0.030785722993856
0.0302085005902699
0.0279651702200428
0.0260551032124989
0.0260354564217512
0.0317393429126282
0.0306945160621519
0.026937707267198
0.0205017229855602
0.0113732127363432
0.00637692422876158
0.0056774561453848
0.00482379541233569
0.00407085582400252
0.00361650316755877
0.00334052976422886
0.00320729895854995
0.00322286440903595
0.00339374417959054
0.00373473432393209
0.0042302914763
0.00484920347215219
0.00555097242695699
0.00631576411386474
0.00712026423493808
0.00794243593389826
0.00877628219748898
0.00963713334577763
0.0105258751174215
0.0114400208877018
0.0124116789523014
0.0135199197550498
0.0148997425220615
0.0167167483869472
0.0184910887143332
0.0199414468765578
0.0211971416308457
0.022310283797527
0.0233008742412885
0.0241821651278337
0.0249648253146258
0.025657040349166
0.0262643197591481
0.0267915980464923
0.0272433422069637
0.0276238989709119
0.0279375667099144
0.0281886557174854
0.028381472143981
0.0285202988666653
0.028609355712165
0.0286527642863651
0.0286545113336003
0.0286184191686874
0.0285481209340676
0.028447043151786
0.0283183930271598
0.0281651519163389
0.0279900732456008
0.0277956846390197
0.0275842937973167
0.0273579968187855
0.0271186773019875
0.0268680179132542
0.0266075305710528
0.0263385547370107
0.0260622626185431
0.0257796818913756
0.025491696814156
0.0251990584088589
0.024902395130548
0.0246022198316874
0.0242989357009881
0.0239928408441167
0.0236841313581177
0.0233729030536469
0.0230591508394562
0.0227427668107417
0.0224235344400555
0.0221011220212003
0.0217750686143224
0.02144477148719
0.0211094575139596
0.0207681626724831
0.0204196766272129
0.0200625360828455
0.0196947352134179
0.0193142418758605
0.0189196660380518
0.0185081833350346
0.01807454514666
0.0176121339300977
0.0171116816329564
0.0165610873916751
0.0159432273401901
0.0152303152000991
0.014314680977303
0.0135626994450417
0.0135926586810099
0.0140641936056871
0.0147783080116017
0.0156034255569531
0.016504395308932
0.0174932053045158
0.0185786034320671
0.0196954836208938
0.0208089937063311
0.0218913296256537
0.0229041254669615
0.0237432181790944
0.0244278009392844
0.0250218168559605
0.0255848222570744
0.0261865883994152
0.0269679769494158
0.0281332108218106
0.02961075359072
0.0314108674761002
0.0336454875771076
0.0362805787584026
0.0386950562145944
0.0385504203042207
0.0359607354753508
0.032862835006558
0.0318683146022153
0.0363257608894223
0.0352811831070436
0.0316641606794745
0.0253460833607698
0.0166884996078475
0.0101071031303083
0.00812031883351388
0.0069641971802917
0.00600466888491904
0.00536586868400948
0.00494552977831362
0.00470913947588097
0.00466556001321145
0.00482290178800196
0.0051923776295314
0.00574395348131152
0.00642935022917665
0.00719900803900162
0.00803049693149246
0.00890072699360349
0.00979214029447274
0.010705793028937
0.0116605184614009
0.0126598939497765
0.0137082359223486
0.0148462961490865
0.0161602262632869
0.0177784661074207
0.0197969163053344
0.0217275993250777
0.0233221806698308
0.0247092915624636
0.025938959340592
0.0270329840091664
0.0280074240208556
0.028873770781978
0.0296403026970664
0.0303130667776154
0.0308974306355611
0.0313983006796317
0.0318204567019222
0.0321686319444466
0.0324475704705664
0.0326620115598839
0.0328166667380452
0.0329161777676017
0.0329650778479179
0.0329677524281116
0.0329284069224484
0.0328510400349122
0.0327394247034249
0.0325970944762673
0.0324273362371498
0.0322331880303908
0.0320174411580121
0.0317826491157051
0.0315311282638287
0.0312649661023781
0.0309860341470849
0.0306960122750315
0.0303963925768076
0.0300884861599815
0.0297734434357315
0.0294522594216716
0.0291257840675331
0.0287947331714395
0.0284596964046436
0.028121144062214
0.0277794323513773
0.0274348071405976
0.0270874061649976
0.0267372590440573
0.0263842855846703
0.0260282907141113
0.0256689576651
0.0253058351776063
0.0249383236273989
0.0245656492301556
0.024186839708377
0.0238006755976887
0.0234056653823498
0.0229998519969683
0.0225809809531324
0.0221469376911096
0.021694933933617
0.0212200251702357
0.0207156329468766
0.0201726080363979
0.0195786749039668
0.0189166853677962
0.0181592182931005
0.0172012876089447
0.016385370493522
0.0163324543282539
0.0167817816285276
0.0175269741765413
0.0184281745109027
0.0194359732349879
0.020553416190848
0.0217824960233975
0.0230593963340622
0.0243421083771439
0.0255974275340316
0.0267809242113561
0.027792588213813
0.0286430215537683
0.0293945369781355
0.0301119103257222
0.0308706748811312
0.0318150440652469
0.0331473296142263
0.0348180641483567
0.0368327303363332
0.0392842101578721
0.0421508942572244
0.0448631114803588
0.0451676469631593
0.0426945788333692
0.0389324868641313
0.0369530984848451
0.0404743060084226
0.0392696648459636
0.0357528100637002
0.0293811666316763
0.021277209414799
0.0140498338443287
0.0104948975019061
0.00890752291034728
0.0077770523858206
0.00698530623198438
0.0064380703318094
0.00610619063698014
0.00600069830668542
0.0061325218433827
0.00651006040309117
0.00709213408508074
0.00781756795532905
0.00863147548363807
0.00951017251231502
0.0104316748075266
0.0113824596959902
0.0123685722162955
0.0134106697062958
0.0145144539033933
0.0156893926077821
0.0169810721716847
0.0184762409870982
0.0202904542799717
0.0224649651965747
0.0245189882135783
0.0262325199142534
0.0277291714373334
0.0290570057603558
0.0302393636059382
0.0312936481854555
0.0322317091721826
0.0330620021234015
0.0337909863585684
0.0344243806805654
0.0349674556606876
0.0354253539275657
0.0358031771055333
0.0361060392505913
0.0363390511151767
0.0365072933008014
0.0366157718773077
0.0366693761272334
0.0366728368684388
0.0366306916316177
0.0365472561358032
0.0364266037519244
0.0362725510060068
0.036088649620283
0.0358781842319484
0.0356441754070719
0.0353893883479343
0.0351163291793608
0.0348272630710361
0.0345242244261304
0.034209038543936
0.0338833294689539
0.0335485284027234
0.0332058924100593
0.0328565126783166
0.0325013253069896
0.032141122563611
0.0317765617967038
0.0314081729442225
0.0310363645064543
0.0306614279515326
0.0302835404532678
0.0299027655471122
0.0295190518139624
0.0291322285660874
0.028741999169627
0.0283479294386764
0.0279494333553558
0.0275457496825559
0.0271359158925827
0.0267187247775562
0.0262926891714838
0.0258559045771283
0.0254060600723926
0.0249406693996139
0.0244568439174885
0.0239499153932197
0.0234135111511421
0.0228387965902753
0.02221369523069
0.0215215048655168
0.0207353793135642
0.0197557728253225
0.0188989786781121
0.0187729801368611
0.0191872495906258
0.0199402118421902
0.0208880084146921
0.0219702671284552
0.0231813024290174
0.0245164251627262
0.0259126786374849
0.0273231048108739
0.0287099421525788
0.030023918655077
0.0311693848051934
0.0321513337883957
0.0330296720312489
0.0338719219677579
0.0347577399142876
0.0358327551439268
0.0372946166527914
0.0391126989019431
0.0412933922578229
0.0439143454839409
0.0469549056845841
0.0498700384612711
0.0505251221930109
0.0483141025857975
0.0443467535646132
0.0416650395180938
0.0443256237677335
0.0428930700677081
0.0394465962792356
0.0330095024325257
0.0251358290441523
0.0179199937739327
0.0129121835767712
0.0107061206670955
0.00939499068519106
0.0084728161250182
0.00781700412612594
0.00740170022784995
0.00723860246974445
0.0073412006796122
0.00771612584281726
0.00831446493269881
0.00906563288348321
0.00991139469959931
0.0108274006884444
0.0117930212715391
0.0127981121135648
0.0138523266039104
0.0149773857353248
0.0161806646725233
0.017475202475728
0.0189085154532767
0.020563957750793
0.0225422898687329
0.0248433298283359
0.0270007711144074
0.0288175071122523
0.0304101242650567
0.031824821424606
0.033086051459291
0.0342117605987717
0.0352139883281564
0.0361013888175453
0.0368807569453725
0.0375581124289604
0.038139043065637
0.0386290107545576
0.0390334441797589
0.0393577878118669
0.0396074855715998
0.0397879501095363
0.039904515922573
0.0399623937572968
0.0399666264621434
0.0399220517442092
0.039833271844796
0.0397046316121426
0.0395402031712601
0.0393437773261702
0.0391188611577013
0.0388686837474119
0.0385961971301853
0.0383040806901601
0.0379947594243448
0.0376704139413239
0.0373330005320114
0.0369842619505817
0.0366257373599684
0.0362587801103133
0.0358845681816526
0.0355041156039444
0.0351182841383847
0.0347277929806447
0.0343332269935009
0.0339350433534404
0.0335335766058545
0.0331290419727889
0.0327215366555894
0.0323110390127933
0.0318974050110625
0.0314803619478751
0.0310594980004187
0.0306342481279799
0.0302038728411158
0.0297674317392771
0.0293237445207224
0.0288713503468681
0.0284084047148275
0.0279326199773119
0.0274413633305216
0.0269316394948149
0.0263990305038177
0.0258374447089929
0.0252384711716442
0.0245904596196339
0.0238773983565987
0.0230732116234958
0.02208493248903
0.0212038317135109
0.0210164876507609
0.0213913274140858
0.0221386293093857
0.0231141510495507
0.0242494414232357
0.0255307946632558
0.0269471099841551
0.02843571687191
0.0299459409556495
0.0314360335173906
0.0328527421692375
0.0341045996949574
0.0351931180862579
0.036175894925704
0.0371219162310842
0.0381138891914019
0.0392977391059495
0.0408650921575358
0.0428003073709089
0.04511250366017
0.0478661630965208
0.0510340997556933
0.054081024301383
0.0549871384514896
0.0530445165610452
0.0491099078418177
0.0460038296439134
0.0479042765223829
0.0462405693240796
0.0428438689094734
0.0364261757730895
0.0284947616209055
0.0215665471325418
0.0154740301963977
0.0124478257515605
0.0109079128360904
0.00986503028097624
0.00911381039768158
0.00862452115112513
0.00840773815261986
0.00847865800109193
0.00884309225438919
0.00944743524359778
0.0102144745180918
0.0110837431256488
0.0120304825026162
0.0130353966318752
0.0140910787908753
0.0152098256807666
0.0164139931015291
0.0177121565818795
0.0191195118037533
0.0206833532762256
0.0224813263982171
0.0245996494961933
0.0270071902760024
0.0292552162078887
0.0311647026362393
0.0328443270623435
0.0343384875135599
0.0356722755039388
0.036863767104201
0.0379251214871357
0.0388651853950633
0.039691038341746
0.0404089675655523
0.041024847126429
0.0415444299460243
0.0419734451087253
0.0423176420944523
0.0425827734013316
0.042774559936814
0.0428986414976695
0.042960527900795
0.0429655523662065
0.0429188319348532
0.0428252353767923
0.0426893599449469
0.0425155152487936
0.0423077140539592
0.042069670631307
0.0418048063543576
0.04151624537251
0.0412068286665449
0.0408791288853002
0.0405354615267503
0.0401779040616029
0.0398083089389887
0.0394283149814603
0.0390393647128718
0.0386427164921069
0.0382394566528878
0.0378305116828889
0.0374166586629279
0.0369985342042727
0.0365766417658501
0.0361513573601773
0.0357229334622339
0.0352915009716435
0.0348570689678933
0.034419521944076
0.0339786141147079
0.0335339601085453
0.0330850214586583
0.0326310873834608
0.0321712488367581
0.0317043633704687
0.0312290124436623
0.0307434203116614
0.0302453653224618
0.0297321975241674
0.0292008753898166
0.0286472059023108
0.0280654181753676
0.0274475860375979
0.0267826252249008
0.0260553416340525
0.0252405869599593
0.0242522841420308
0.0233589904428072
0.0231217907316998
0.0234572852424358
0.0241912208976722
0.0251818796866952
0.0263552091379583
0.0276903997142784
0.0291703414201676
0.0307321705446215
0.0323222093953095
0.0338951277163173
0.035394365771676
0.0367324138086859
0.0379087748495352
0.0389790972484173
0.0400131710885416
0.041095992697011
0.0423729678238147
0.0440289711478007
0.046060050444723
0.0484780702937513
0.051335199922405
0.054592966488167
0.0577187456144718
0.0587964601817524
0.0570870951421248
0.0532895466279481
0.049956939503118
0.05121840679407
0.0493508767357234
0.0459933590752617
0.0396982234728084
0.0315322212381378
0.0249336117844838
0.0182320426590224
0.0142157770096038
0.0123645386911255
0.0111973076226082
0.0103583665163182
0.00980115141955408
0.00953287397818693
0.00956936508905955
0.00991632661257922
0.010518046818196
0.01129296489639
0.0121790875924654
0.0131513298545465
0.0141915700819641
0.0152945544293039
0.0164745014161238
0.0177540927014145
0.0191426209037212
0.0206562392643356
0.0223404873108013
0.0242661051897407
0.0265059583104195
0.0290059428737378
0.0313358411436654
0.0333308074993231
0.0350912883738989
0.0366598543569104
0.0380618357292229
0.0393152107754595
0.040432219493255
0.0414218833159173
0.0422915303482059
0.0430476920575761
0.043696507831311
0.0442440031337781
0.0446961902471681
0.0450591074242189
0.0453388000279528
0.0455412819828194
0.0456724834790481
0.0457381988661447
0.0457440375593088
0.045695382180168
0.0455973547227176
0.0454547920532046
0.045272229028459
0.0450538887126608
0.0448036832003109
0.0445252120222573
0.0442217639745091
0.0438963326170404
0.0435516297441516
0.0431900977971094
0.0428139285053777
0.0424250776466819
0.0420252778124699
0.0416160556351836
0.0411987452950875
0.0407745014292338
0.0403443118683727
0.039909008784436
0.0394692783229915
0.0390256685931628
0.0385785960305804
0.0381283499348171
0.0376750951074042
0.0372188722490489
0.0367595959988384
0.0362970499636692
0.0358308785631
0.0353605743965055
0.034885460962901
0.0344046678496346
0.0339170991336312
0.0334213908157549
0.0329158447819106
0.0323983309403527
0.0318662590003781
0.0313166098225518
0.0307454068661212
0.0301472218128305
0.0295146463774178
0.0288372469218427
0.0281007087520768
0.0272809303204681
0.026298605549506
0.0254020915348909
0.0251254434144735
0.0254240258815065
0.0261404310871557
0.0271376453667301
0.0283381086711641
0.0297148910395727
0.0312453603754802
0.0328661143832923
0.034520901720877
0.0361611161170904
0.0377274495274194
0.0391361593883587
0.0403857655701826
0.041530373216982
0.0426402409888715
0.0438020618873105
0.045160043237568
0.0468918921330332
0.0490027060715506
0.0515062782597302
0.0544426702808719
0.0577593253915976
0.0609238887916478
0.0621129807986769
0.0605943966271025
0.0569721440420295
0.0535407432643764
0.0542798142024884
0.0522457523954453
0.0489254152564744
0.0428342400394598
0.0343838908538947
0.0280000044884247
0.0211663443589699
0.0160841821533624
0.01380854157581
0.012498505979756
0.0115742725840008
0.0109522488698247
0.0106330292086903
0.0106318681361457
0.010954763651686
0.0115460332049833
0.0123217100341322
0.0132188018049224
0.0142118898631837
0.0152837978099949
0.0164308997031116
0.0176687621763055
0.019020127960734
0.0204945433004934
0.0221081441508585
0.0239036724127877
0.0259444878215762
0.0282915909705834
0.0308738735585879
0.0332794853175807
0.0353547019293105
0.0371916989729821
0.0388311286570976
0.0402982363236214
0.0416107650805964
0.0427810043755546
0.0438181274139265
0.0447296838216779
0.0455224325337169
0.0462027641121121
0.0467769648019973
0.0472513194529578
0.0476321452403156
0.0479257708593537
0.048138493945938
0.0482765258591283
0.0483459363486978
0.0483526019747762
0.0483021620236173
0.0481999829539329
0.0480511327087915
0.0478603631258673
0.0476321003746792
0.0473704459683416
0.0470791691394245
0.0467617179657896
0.0464212320487536
0.0460605562679651
0.0456822543091708
0.0452886271695109
0.0448817293562492
0.0444633829527966
0.0440351950056724
0.0435985721989193
0.0431547345607562
0.0427047288081567
0.0422494401918176
0.0417896028215094
0.0413258083345006
0.0408585129253496
0.040388042536934
0.039914596192975
0.0394382470898315
0.0389589414671056
0.0384764944634834
0.037990583134195
0.0375007349087513
0.0370063122225786
0.0365064892900308
0.0360002238772686
0.0354862163152081
0.0349628545512324
0.034428117006233
0.0338795206374823
0.0333141280201692
0.0327281841348273
0.0321166166028785
0.0314725513306752
0.0307862535807973
0.0300443116239307
0.0292237567330536
0.0282517178300006
0.0273587090746541
0.0270517125836672
0.0273169939915574
0.028013978843919
0.0290118666721503
0.030231320718907
0.0316402661984177
0.0332110844415085
0.0348796118869516
0.0365872960798509
0.0382824992314578
0.0399036481218256
0.0413706253716024
0.0426816951821718
0.0438897967309799
0.0450654846089153
0.0462966443117859
0.0477256842181231
0.0495228914631216
0.0517003059012721
0.0542724756475308
0.057267343772675
0.0606169880525948
0.0637896209324543
0.065045031794387
0.0636779302767602
0.0602378971274878
0.0567872323502016
0.0571045947239533
0.0549413552949295
0.0516621178416093
0.0458223889325871
0.0371452051345768
0.0307903892289311
0.024192539431421
0.0181169463741191
0.0152815218282813
0.0137929399459599
0.0127802189308672
0.0120939079176188
0.0117228914036221
0.0116804303712412
0.0119728900472566
0.0125463112892243
0.0133160290924737
0.0142185248726115
0.0152280038026843
0.0163279745085837
0.0175159679980517
0.0188084187307192
0.0202278839066498
0.0217837419644263
0.0234913468202382
0.0253899760234987
0.0275355792914453
0.0299787670763423
0.03263585747565
0.0351126919619634
0.0372643036191939
0.0391747003868892
0.0408824886154838
0.0424125631790531
0.0437823379925316
0.0450041195207565
0.0460872076612785
0.0470393520300795
0.0478675267271647
0.0485783641895855
0.0491784045833694
0.0496741995416475
0.0500723400300191
0.0503794331000508
0.0506020551491392
0.0507466936272466
0.0508196884723423
0.0508271780342658
0.0507750528148155
0.0506689182174299
0.0505140677435413
0.0503154647415418
0.0500777347988675
0.0498051599809874
0.0495016761043013
0.0491708859123896
0.0488160703947144
0.0484402031572124
0.0480459649951104
0.0476357625259717
0.0472117456164727
0.0467758226902016
0.0463296784705109
0.0458747896915916
0.0454124396208052
0.0449437320528321
0.0444696038521814
0.0439908359745523
0.0435080628222412
0.0430217799529989
0.0425323499480188
0.0420400064591517
0.0415448560395942
0.0410468778737795
0.0405459205428251
0.0400416962428426
0.0395337704951621
0.0390215486917628
0.0385042547764238
0.0379809063133508
0.0374502760533245
0.0369108457813019
0.0363607147029203
0.0357975376910818
0.0352185061227947
0.0346200988066811
0.0339976087636586
0.033344702070016
0.0326523665163747
0.0319080936210518
0.031090104796964
0.0301315285123485
0.0292471211622253
0.0289175963414885
0.029153693115585
0.029830849171024
0.0308254157770763
0.0320576728316257
0.0334913247331401
0.0350943221251675
0.036801617220196
0.0385525412878954
0.0402926330225208
0.0419584832557916
0.0434735026146306
0.0448362272011515
0.0460987552837619
0.0473318376317456
0.0486240892220359
0.0501155769472427
0.0519689985397928
0.054201622374992
0.0568274857288184
0.0598625073970333
0.0632233520442563
0.0663804800314274
0.0676684762003079
0.0664193303702226
0.0631540130109087
0.0597324655197366
0.0597107971563587
0.0574518209024473
0.0542207950087098
0.0486505172176489
0.0398732814740814
0.0333551597340097
0.0271907190750912
0.0203648024947536
0.0168262345190964
0.0151030896581896
0.0139919221861149
0.0132392741081703
0.0128143142867603
0.0127265028270574
0.0129822896319226
0.013530694260032
0.0142878755546471
0.0151902736642606
0.0162116773257188
0.0173360134622677
0.0185615458702912
0.019905158504313
0.0213889870906649
0.0230218748355288
0.0248178142654646
0.0268122307449352
0.0290538933238854
0.0315843456880612
0.0343106123141335
0.0368553162650599
0.0390804285082736
0.0410619658045309
0.042836344226421
0.0444278834276173
0.0458535936428554
0.0471257619500264
0.0482537888157869
0.0492456057424806
0.0501083928647622
0.0508490188284861
0.051474274618927
0.0519909766244397
0.0524059881292414
0.052726193088661
0.0529584450586718
0.0531095056636393
0.0531859827808356
0.053194273963885
0.0531405180591041
0.0530305562833692
0.0528699043888217
0.0526637345892481
0.0524168678080237
0.0521337615736587
0.0518185164164836
0.0514748863039686
0.0511062903012969
0.0507158275943457
0.050306293068375
0.0498801962726369
0.0494397799383218
0.048987036480891
0.0485237262485634
0.0480513941895276
0.0475713852030453
0.0470848588189057
0.0465928024445657
0.0460960430895651
0.0455952574183556
0.0450909801520274
0.0445836106353541
0.0440734176196945
0.0435605418709844
0.0430449967876618
0.0425266661436202
0.042005299539854
0.0414805034927725
0.0409517299127799
0.0404182569324476
0.039879167248416
0.0393333128955129
0.0387792765603107
0.0382152877377971
0.0376391597237558