/*--------------------------------*- C++ -*----------------------------------*\
  =========                 |
  \\      /  F ield         | OpenFOAM: The Open Source CFD Toolbox
   \\    /   O peration     | Website:  https://openfoam.org
    \\  /    A nd           | Version:  7
     \\/     M anipulation  |
\*---------------------------------------------------------------------------*/
FoamFile
{
    version     2.0;
    format      ascii;
    class       volVectorField;
    location    "9000";
    object      U;
}
// * * * * * * * * * * * * * * * * * * * * * * * * * * * * * * * * * * * * * //

dimensions      [0 1 -1 0 0 0 0];

internalField   nonuniform List<vector> 
15600
(
(0.102797196416626 -0.000386929141012186 -1.15796037960049e-21)
(0.124824506169117 -0.00345382112989229 -2.38662026608001e-18)
(0.0873908663452587 -0.0115175207463214 0)
(0.00483222754058538 -0.00425524223225666 -2.0330262751101e-17)
(-0.0433571619203311 0.0172049877469292 -2.39936904494029e-21)
(-0.0394035856566955 0.0223430358003791 -1.47116805045869e-20)
(-0.0266992244449362 0.0180899411608583 -4.17599295745799e-17)
(-0.0207925693195574 0.0155588991259263 4.30274495618368e-17)
(-0.0170155391547888 0.0135461589234451 -1.25959393078865e-14)
(-0.0155836707986926 0.0126355406446116 -1.32189843341372e-14)
(-0.0145019488145691 0.0116822651960736 1.22194295034336e-20)
(-0.0142156953827036 0.0112685231629585 -2.5675305652189e-20)
(-0.0142187616865125 0.0111354767581478 2.70107791628364e-20)
(-0.014709270724831 0.0114198971769197 -5.7705340816354e-17)
(-0.0158651931876952 0.0122319929015765 -6.00430854802833e-17)
(-0.0177921696787359 0.0136180617308129 -6.06030184467001e-20)
(-0.0202301061795459 0.015318884664479 -6.38292248069832e-17)
(-0.0229411880014678 0.0169522537027595 1.32021955378651e-16)
(-0.0259065050549882 0.0183569469709866 -6.81841766013878e-17)
(-0.0289060946364513 0.0192588591685607 -7.10720222200737e-17)
(-0.0315912886169171 0.0193414190527044 7.37731847726643e-17)
(-0.0340052846200564 0.0185515447212389 -7.65692706760274e-17)
(-0.0364278432133285 0.0171502499797087 -2.98458879448049e-22)
(-0.0386219727733625 0.0151503185691554 8.12603232098263e-17)
(-0.0403722916346833 0.0125248035557347 0)
(-0.0415953453331794 0.0093436631816009 0)
(-0.0411794472684632 0.00555371272307763 -6.1800126564981e-15)
(-0.0451415448616863 0.00200676820697871 -6.18463441972457e-15)
(-0.0576204639766916 0.000467928939804375 1.91811143846937e-23)
(-0.0684104879518748 0.000473311191459173 5.57848418924212e-31)
(-0.0745559012456816 0.000466378265975958 0)
(-0.0785972912442775 0.000458497505804522 -6.44018484904434e-15)
(-0.0810095007500175 0.000452882184035605 -6.5027758390639e-15)
(-0.0822744908587761 0.000442468429441616 0)
(-0.0825812126204512 0.000428484904577937 0)
(-0.0821008012585807 0.000411296474685937 0)
(-0.0809568898365722 0.000392320007075942 0)
(-0.0792456199222518 0.000371488048450409 -7.58787262151761e-20)
(-0.0770461775618744 0.000349418651879919 6.31587153305729e-15)
(-0.0744305990582772 0.000326613416992912 6.44024151221718e-15)
(-0.0714638911199159 0.000303538680562446 -7.74634057743159e-20)
(-0.0682060893680531 0.000280590244211157 -7.88081137641509e-20)
(-0.0647123626811246 0.000258089154227599 7.92662568070621e-20)
(-0.0610332362061242 0.000236290439307882 -8.07314174809942e-20)
(-0.0572146429154308 0.000215382539663111 8.13185594020528e-20)
(-0.0532979430238243 0.000195499892050823 0)
(-0.0493200449897717 0.000176727333126078 -7.22909265159764e-15)
(-0.0453135314874338 0.000159110587379499 -7.37683972143533e-15)
(-0.0413068805519757 0.000142662143275273 -8.61282946405807e-20)
(-0.0373247076222518 0.000127369289100119 4.35678950828447e-20)
(-0.0333880554984068 0.000113199073699391 -4.43792499342664e-20)
(-0.0295146961613333 0.000100104279782066 8.97961628845112e-20)
(-0.025719449444665 8.80269821382635e-05 -7.5694252110908e-15)
(-0.0220144995765158 7.69027981369109e-05 -7.69913845487926e-15)
(-0.018409699036358 6.66626816445724e-05 -2.33353234320568e-20)
(-0.0149128779207541 5.72407644199063e-05 0)
(-0.0115300948378628 4.85538855560691e-05 1.39661532188413e-30)
(-0.0082659318145047 4.03317466156182e-05 -1.21678774924049e-20)
(-0.00512369855348309 3.18952724818877e-05 1.8437627791195e-20)
(-0.00210568057022264 2.34707451157533e-05 -6.21379582185016e-21)
(0.000786640585377136 1.59603942462601e-05 0)
(0.00355257640520347 9.3636079630993e-06 1.25358353622872e-20)
(0.00619192247941355 3.3148577094397e-06 -1.24783478500942e-20)
(0.00870477388863788 -2.32078019798787e-06 1.4521719235514e-30)
(0.0110915235177377 -7.59753909251984e-06 0)
(0.0133526834076084 -1.25704459767844e-05 -2.49111186161658e-20)
(0.01548879603469 -1.72905644151209e-05 2.48293419384412e-20)
(0.0175003274889985 -2.18060793635046e-05 0)
(0.0193875813101069 -2.61628012486641e-05 0)
(0.0211505964113236 -3.04043185929123e-05 0)
(0.0227890667773997 -3.45735036438397e-05 0)
(0.0243022200056414 -3.87115519731228e-05 0)
(0.0256887452236969 -4.28613705218451e-05 8.30179626812254e-15)
(0.0269466104717255 -4.70638859534216e-05 1.6565295070523e-14)
(0.0280730206873817 -5.1366312158509e-05 8.26172673469793e-15)
(0.0290640801757948 -5.58109049601948e-05 -1.99351032774207e-19)
(0.0299148675701322 -6.04565819433565e-05 9.97551175648411e-20)
(0.0306187061504799 -6.53464309236184e-05 -1.00145761763138e-19)
(0.0311676545162796 -7.05666427103062e-05 1.00211278871583e-19)
(0.0315506956804581 -7.61562109251698e-05 8.42001116696638e-15)
(0.0317559957382157 -8.22784417539478e-05 8.3655728458403e-15)
(0.0317657214719072 -8.89467234154249e-05 -1.01225245058291e-19)
(0.0315647555549615 -9.64335590675219e-05 1.01830821459096e-19)
(0.0311246330673097 -0.000104593059394398 -2.04432898042402e-19)
(0.0304187991592346 -0.000114087090024764 1.02674885554147e-19)
(0.0293904567090063 -0.000124289709070639 -2.07077614724114e-19)
(0.0280022510384688 -0.000136943872126076 4.1682350086703e-19)
(0.0261427827268366 -0.000150055868137481 -2.10010834554584e-19)
(0.0237722995557609 -0.000168340490542881 -2.12707413576837e-19)
(0.0206400199142112 -0.00018525256630431 4.30249516363961e-19)
(0.0167720296924535 -0.000213453783751548 0)
(0.0113211315814603 -0.000226881757377434 -2.718676250698e-23)
(0.00436552990888424 -4.06394898654907e-06 0)
(0.00341182423678878 0.000425047412207927 2.29445836951628e-19)
(0.00591215039672472 0.00157502489711273 -5.80966602917557e-17)
(0.00823796188648782 0.00297885630827125 -6.12629821653699e-22)
(0.0115062805142558 0.00507646730043015 -1.07555300065019e-16)
(0.0152052069419112 0.0078059402639751 -1.03618903501497e-16)
(0.0195573590721578 0.0113337100580664 9.84630519483293e-17)
(0.0250335844961643 0.0158706444916611 -9.33788923704819e-17)
(0.0312640738744773 0.0211150930573552 8.86376558937872e-17)
(0.0379744925792973 0.0267704834308702 8.42856147500597e-17)
(0.0450539938421899 0.0326292201167309 0)
(0.0525097277269294 0.0385135732611134 0)
(0.0592341807913705 0.0436488667502402 -7.36853551807394e-17)
(0.0648226213854604 0.0481087580740373 -7.0663501298064e-17)
(0.0701906714633989 0.0526541040400131 -6.75442220185273e-17)
(0.0758013637315454 0.0576591695571808 -6.42570591848815e-17)
(0.0822307502268148 0.0635683778801054 -6.07558778631959e-17)
(0.0906732419628245 0.0712683638924641 5.68487723377167e-17)
(0.104454331573665 0.0824892216288779 5.25701452853715e-17)
(0.124574146138123 0.0960843903298949 -4.84157342667553e-17)
(0.150324743166373 0.109926938125519 4.42901568995509e-17)
(0.186864124977895 0.124125102917042 4.01004632778803e-17)
(0.235284279513086 0.133129978131961 -3.57288673013504e-17)
(0.28958896403196 0.123400988024966 0)
(0.278894758940388 0.0721503855286477 1.42862412969897e-17)
(0.1960291509373 0.0227312238577779 0)
(0.108822757330078 0.00206640602660223 -2.07015373380555e-18)
(0.082118951799758 -0.000599744814615963 0)
(0.330199441301306 -0.00164895893332711 0)
(0.360832850003533 -0.00856530825165821 -7.08566156285029e-22)
(0.294192539053034 -0.0304185229465115 -4.84305006544018e-21)
(0.0976983356992983 -0.0213206687910959 1.69461255350803e-14)
(-0.0742805932233007 0.037850379603344 1.89723607132166e-14)
(-0.0926091583710997 0.0575650087732842 -5.88122426412215e-17)
(-0.0670388397336078 0.0485242574871356 1.82255300149181e-23)
(-0.0536649359299295 0.0426848478647566 -6.20605764821743e-17)
(-0.0452028397726933 0.0379334169292841 1.8430745427152e-14)
(-0.0420217144961878 0.0357446068927883 1.92205234659021e-14)
(-0.0399912081076039 0.0334717725014568 -3.53826556042393e-20)
(-0.0398227433403425 0.0325717715011921 3.7175932946587e-20)
(-0.0405321222844738 0.0325088217485852 -3.85842622172477e-20)
(-0.0425663574051923 0.0336536051930901 -8.15470195027105e-17)
(-0.0462968301008 0.0362599388138912 1.66246809927945e-16)
(-0.0517615640028204 0.0403262738123982 -8.17791897408523e-20)
(-0.0583085734044446 0.0451047501766183 8.40473239855703e-17)
(-0.0654413183120793 0.049563981595288 -8.4068108796773e-17)
(-0.0730148759276517 0.0531821200057067 1.62741547740623e-19)
(-0.0805506232122724 0.0552205660514208 -1.61822597129211e-19)
(-0.0875617619342263 0.0549905912492589 -8.18467396355064e-17)
(-0.0942336385688516 0.0524232743643933 8.09464550507708e-17)
(-0.100823169506213 0.0480729999453454 7.96689695786999e-17)
(-0.106823598592578 0.042034389898633 -1.52074442413076e-19)
(-0.111885440617871 0.0343648544336358 3.81596140010026e-17)
(-0.116141444573524 0.0253682025187006 -3.74475829194636e-17)
(-0.120653937560822 0.0154648031597344 5.32154642047411e-15)
(-0.133099049051678 0.00638701638805036 4.9272128741202e-15)
(-0.153862166583094 0.00215715328694596 -2.96404080290537e-23)
(-0.168567647904323 0.00140889785377802 -4.17556597549962e-31)
(-0.17579295289192 0.000833822956337587 0)
(-0.179457440897011 0.000481480066636336 4.70725991644545e-15)
(-0.180425097875366 0.000232747280986803 4.55698218321712e-15)
(-0.1794825113118 3.94878308408028e-05 2.09114828943435e-19)
(-0.176994561542514 -0.000116763007180601 -1.03014925177687e-19)
(-0.173271903621845 -0.000246605965057699 -1.02858327115247e-19)
(-0.168514067174087 -0.000356018504751663 1.01846462905089e-19)
(-0.162890641546518 -0.000449211327089927 7.43234990835939e-31)
(-0.156539160061776 -0.000528305590040967 -4.28921494513146e-15)
(-0.149581327209642 -0.000594820333395147 -4.26645379953405e-15)
(-0.142124226157713 -0.000649934866913505 0)
(-0.134264152906285 -0.000694645977182336 5.25795861716409e-20)
(-0.126087578925109 -0.000729888129427541 3.15461636019497e-22)
(-0.117672212270041 -0.000756539687450499 -5.35937924661498e-20)
(-0.109087633131078 -0.000775457967603581 -5.47027128708184e-20)
(-0.100395814647211 -0.000787463721524204 1.10866333136816e-19)
(-0.0916516495253293 -0.00079334675740378 4.89845738483676e-15)
(-0.0829034140700409 -0.000793852974497979 4.95520893200082e-15)
(-0.0741932789176789 -0.000789682693431593 5.83930148184753e-20)
(-0.0655577942773189 -0.000781483336964383 0)
(-0.0570283908642835 -0.000769849109938963 -3.05376074933552e-20)
(-0.0486318646622143 -0.000755317540859144 3.10517572403217e-20)
(-0.0403908563808945 -0.000738371485115908 5.30609945837782e-15)
(-0.0323243108540115 -0.000719438803484259 5.40422787702056e-15)
(-0.0244479049129587 -0.000698896048255671 -1.66464352750511e-20)
(-0.016774478233543 -0.000677070395322396 -6.0276552852376e-23)
(-0.00931439038856811 -0.000654400013428737 -5.89735425686541e-23)
(-0.00207595925127853 -0.000631211301655029 1.77154321572534e-20)
(0.0049343925844833 -0.000607229247090625 -4.47828562315688e-21)
(0.0117118223593877 -0.000582587185380264 4.45677998982397e-21)
(0.0182525091496026 -0.000557562263684007 -4.46425173776754e-21)
(0.0245536481479209 -0.000532203818499961 4.44850872640013e-21)
(0.0306132378204847 -0.000506787481553417 1.78372887688889e-20)
(0.0364297506643744 -0.000481411022292609 -1.77948767312505e-20)
(0.0420020425534574 -0.000456103484190247 0)
(0.0473291085938543 -0.000430881060976645 0)
(0.0524099330753675 -0.00040574049806002 0)
(0.0572433112954369 -0.000380660842719755 0)
(0.0618276914328507 -0.000355603801735882 0)
(0.0661609891190301 -0.000330512664561893 0)
(0.0702404228979677 -0.000305313582240156 0)
(0.0740622842467243 -0.000279910531392231 7.25857250919676e-20)
(0.0776217611615973 -0.000254189046441072 -6.04492905901304e-15)
(0.0809125974451362 -0.000228002809092444 -1.21864576734087e-14)
(0.0839269180558006 -0.00020118576586843 -6.14820825660904e-15)
(0.0866546337769923 -0.000173517865722356 -1.47979527763182e-19)
(0.0890833548685471 -0.000144763385124749 -1.36634533524456e-22)
(0.0911971902676399 -0.000114581931880133 7.49583525000026e-20)
(0.0929770896916464 -8.26434727650791e-05 7.57119223264891e-20)
(0.0943980567570095 -4.84119834729229e-05 -6.3255123883848e-15)
(0.0954315673320151 -1.1428460055308e-05 -6.45669526338923e-15)
(0.096035666998127 2.88828923637906e-05 7.79382604669808e-20)
(0.096173644595119 7.27784752468501e-05 0)
(0.095786419647559 0.000122688531025864 1.59972464693983e-19)
(0.0948053874467324 0.000179510420590017 -1.61909798212889e-19)
(0.0931107821009109 0.000247686948477635 -1.64863691419404e-19)
(0.0905959381986194 0.000326851242153841 1.6762204966013e-19)
(0.0870300575907744 0.000427349837890672 0)
(0.08225180155274 0.000545680649258662 0)
(0.0757476142524462 0.000709005441968157 1.82095693595283e-19)
(0.0673071006275726 0.000915097875166412 -5.13278821560132e-22)
(0.0552495720112319 0.00122768917306366 1.99954293404976e-19)
(0.039853053747152 0.00233984214674159 0)
(0.035210664410944 0.00424329514413306 -1.65660344342055e-22)
(0.0383997731371026 0.00796104259252458 0)
(0.0429857853241367 0.0125163355623179 5.14055092131403e-17)
(0.0493153476950222 0.0185181707227957 -9.83415967454155e-17)
(0.0568124680215042 0.0259451271993275 -1.83687083562646e-19)
(0.0657051470947713 0.0351174866629461 1.74583146495739e-19)
(0.0767984609305532 0.0464246485475152 1.65949756951489e-19)
(0.0896735784632686 0.059353131145988 -8.10800709440458e-17)
(0.103945923132274 0.0733056161823233 -1.61836480575241e-19)
(0.119370701097299 0.0878364374999944 -7.38582921604244e-17)
(0.135958996772368 0.102560386927729 0)
(0.152056623004058 0.116121211172433 0)
(0.166567841507535 0.128520857751639 6.72584094555039e-17)
(0.180351331837989 0.141107513821854 6.53752591586705e-17)
(0.194299620630636 0.154771079638358 6.33424048701859e-17)
(0.209547429251086 0.170505466050318 3.91533178608173e-20)
(0.228202699235369 0.190116360426259 -5.77492027717306e-17)
(0.256122741930468 0.216911090334512 -1.0720751874588e-16)
(0.296914831095722 0.248720401739102 0)
(0.350846651830965 0.280585861902612 0)
(0.425252887438068 0.310534648017883 -3.85587161177058e-17)
(0.522730101913907 0.32640410165905 -3.28304278662448e-17)
(0.638498540386868 0.303251209603597 2.84151885642422e-17)
(0.677688730506282 0.199522401581833 -1.25218005575702e-17)
(0.58362233412645 0.0823653089888382 0)
(0.419214855661507 0.016115997797872 0)
(0.328296534097254 -0.000146088590959975 0)
(0.519711350469071 -0.00159460488380068 0)
(0.534447186668529 -0.0117234525331738 1.50240722608103e-18)
(0.473220695876273 -0.0437281955832899 0)
(0.238952515468243 -0.0470066996621524 -1.10246662573744e-14)
(-0.0480309194151694 0.0333281100404245 -1.47641982346032e-14)
(-0.122398823275292 0.0764219486845513 5.3802245649619e-17)
(-0.0964565977315175 0.0686853632670077 0)
(-0.0795892927830065 0.0625023649882458 6.89610707911348e-21)
(-0.0687465899630554 0.0572239963893166 -6.03474811607487e-17)
(-0.0647464526162947 0.0547840862222761 6.38814273696595e-17)
(-0.062566320482617 0.0522002098386539 8.76272226891027e-23)
(-0.0629356864514466 0.0514158082545292 -3.38489339721906e-20)
(-0.0646927609343631 0.0519275367333925 0)
(-0.06839225928352 0.0542447521247497 7.14612104456914e-17)
(-0.0743967304083511 0.0585836940504364 -8.98909821226376e-22)
(-0.0824595630725511 0.0646749592577445 -6.71679493378003e-20)
(-0.0915597045378701 0.0713118347261852 6.45235881649756e-20)
(-0.100986367480425 0.0769764007918404 0)
(-0.110391424302427 0.0808553725994726 0)
(-0.119203062856195 0.0820851615426593 0)
(-0.127079949305753 0.08009506206369 0)
(-0.134393327812695 0.075018900259456 -5.05331599586075e-17)
(-0.14136942237331 0.0676462990357812 -4.7541426616021e-17)
(-0.147628597004176 0.0583125972276446 8.82601821832769e-20)
(-0.153134047413476 0.0472732018132429 -8.83139382223351e-20)
(-0.158432329753 0.0350070276210004 4.11506027120699e-17)
(-0.165089894579973 0.0219788866171334 1.95311506943246e-17)
(-0.178594783375432 0.0098177595522552 7.0533683107722e-20)
(-0.195888038954253 0.00386230959555201 1.56609781025977e-23)
(-0.206296471287684 0.00233094823846077 0)
(-0.210599376842447 0.00123147045628037 0)
(-0.211788753240288 0.000557479517999646 0)
(-0.210525196131467 7.30919053144957e-05 0)
(-0.207500200383538 -0.000299718231826497 0)
(-0.203046261138676 -0.000599967741327492 0)
(-0.197428567227772 -0.00084840613663746 0)
(-0.190827729316808 -0.00105708238849305 0)
(-0.183404857046304 -0.00123342180257983 0)
(-0.175291841877694 -0.00138195752168214 2.45253871404478e-20)
(-0.166606262742585 -0.00150583952512682 -2.43171462646418e-20)
(-0.157452055534281 -0.00160758536881246 2.447864075193e-20)
(-0.147922920912259 -0.00168929234345516 -2.43933687557192e-20)
(-0.138103147140075 -0.00175288441213625 0)
(-0.128068586721324 -0.00180013403466294 0)
(-0.117887240363186 -0.00183273038437548 2.50157908322653e-20)
(-0.107619756051428 -0.00185226569166201 1.36415385679888e-22)
(-0.0973199287243374 -0.00186024841105144 -2.53949354888557e-20)
(-0.0870351486759657 -0.00185808926086098 0)
(-0.0768068910339055 -0.00184710088615528 0)
(-0.0666711836636076 -0.00182849025680703 0)
(-0.0566590885735701 -0.00180335966577312 0)
(-0.0467971695876687 -0.00177270379960445 0)
(-0.0371079541520332 -0.00173741389926863 1.38918012629156e-20)
(-0.0276103775177561 -0.00169827936077081 -1.4068752306404e-20)
(-0.0183201961940594 -0.0016559944035117 -7.18301150157293e-21)
(-0.0092504118526752 -0.00161117969589591 -2.58876328146578e-23)
(-0.000411601677029226 -0.00156433006469391 -2.51300807386721e-23)
(0.00818769587091655 -0.00151569673575567 7.45683476876333e-21)
(0.0165407103269007 -0.00146534489376075 0)
(0.0246421208942003 -0.00141383508235759 0)
(0.0324877108402412 -0.00136175580794476 0)
(0.0400742857756925 -0.00130927742824338 0)
(0.0473993464043078 -0.00125656232239221 7.7037313036423e-21)
(0.0544608402704214 -0.00120369659986528 1.96316378538564e-23)
(0.0612570522789836 -0.00115072600218305 -7.79417667697135e-21)
(0.0677863670694374 -0.00109766429563027 0)
(0.0740471093737324 -0.00104448732214015 -1.58676079397591e-20)
(0.0800373603802055 -0.000991135002778093 1.596143047524e-20)
(0.0857547901190259 -0.000937511030560519 -1.6131659197323e-20)
(0.0911964640757635 -0.00088348056450258 -3.38266439062969e-23)
(0.0963586635356576 -0.000828869912865194 -1.64539148697489e-20)
(0.101236646152525 -0.000773458347380486 3.30855150340165e-20)
(0.105824443679147 -0.000716978927480061 0)
(0.110114514252352 -0.000659098566105783 0)
(0.114097518571154 -0.000599425801800373 3.41799740207837e-20)
(0.117761733160845 -0.000537463181677463 6.39722168246732e-23)
(0.121092858074108 -0.000472640719450693 -3.49052879163936e-20)
(0.124072881903471 -0.000404198647427867 -3.54041751089156e-20)
(0.126680163609962 -0.000331300598286493 3.58059227398407e-20)
(0.1288869270738 -0.000252765393212517 -3.63763991440227e-20)
(0.130660662228201 -0.000167301891801417 -6.78634678849151e-23)
(0.131957750817762 -7.3331066199581e-05 3.74634081903533e-20)
(0.132730608239048 3.03527616668138e-05 7.63559489146491e-20)
(0.132911142091098 0.000148147918911521 1.49917641595474e-22)
(0.132422039504654 0.000283545855668829 -7.88754199562359e-20)
(0.131137728155291 0.000444938920630034 0)
(0.128933150279861 0.000636131327190732 -8.24327947824574e-20)
(0.125568217603423 0.00087553678515401 8.43744321198666e-20)
(0.120839978470621 0.00116900996347388 8.71271438232633e-20)
(0.114218619164325 0.00156224571803657 -9.00348677019065e-20)
(0.105392451211023 0.00208957692143652 0)
(0.0927783797157557 0.00283741247981823 0)
(0.0760806797339436 0.00494456160220367 3.42703048696716e-18)
(0.0685402630701775 0.00857379453720913 2.77774549433035e-17)
(0.0697306960214906 0.0143091179299862 1.03909676618517e-19)
(0.0737769108907661 0.0211060114723212 -2.53140923587419e-17)
(0.0802183012514603 0.0295248392177301 1.54168265087137e-21)
(0.0884210516131636 0.039566621718622 0)
(0.0985137802004788 0.0515818217587629 0)
(0.11125778648135 0.0658847485262428 8.36330364330765e-20)
(0.126425334321653 0.0820228536354323 -8.05211774480072e-20)
(0.143645019891597 0.0993993929013982 6.85806149490805e-20)
(0.162647468036793 0.117566362670791 3.8676582133125e-17)
(0.18339961661931 0.136093273323019 -3.77574143774851e-17)
(0.204442195220855 0.153884360739713 0)
(0.224453351326537 0.171007556168524 -3.58369513643519e-20)
(0.243995708193797 0.188742476507164 3.57112125893501e-20)
(0.263972555359201 0.208034756895104 0)
(0.285607134273634 0.229955661935558 3.53639687353504e-17)
(0.311070030609014 0.25624428014143 0)
(0.346354785080473 0.289551010531441 3.2096961953178e-17)
(0.39641862932372 0.327287210235842 -3.53717479907692e-21)
(0.461932731534918 0.363528114627355 3.33323359968406e-21)
(0.549031026882276 0.393657277597024 2.3237063772391e-17)
(0.659629136651043 0.403195034732462 1.9551575772482e-17)
(0.790061264918629 0.366801010118005 -3.36131103077176e-17)
(0.865708644393847 0.251614678888696 7.73355490542003e-18)
(0.817629773169832 0.118393496669987 0)
(0.669580310675173 0.0311793807592456 1.17108557819702e-18)
(0.552111107837954 0.00347093701423792 -6.67217453035749e-22)
(0.640458495751861 -0.000469986704128988 4.64923882519837e-22)
(0.639222649661674 -0.0132151350125103 -4.60551011005959e-22)
(0.589967517200489 -0.0503547046098825 3.87240782259584e-18)
(0.370867826689056 -0.0678220402969446 0)
(0.0246942766481747 0.0125655683868296 -3.06428310877643e-17)
(-0.123715560528104 0.0798322162191064 -4.19758992937334e-17)
(-0.111734196248172 0.078314976444521 0)
(-0.0957617605093763 0.0741604131034358 0)
(-0.0850000239963872 0.0701485878048687 4.80787325592692e-17)
(-0.0812758130598689 0.0684209862956369 -5.13192112873961e-17)
(-0.0796746728511242 0.0662995332882982 5.34174405698398e-17)
(-0.0808097574098279 0.0659937130192532 -2.66498429492614e-20)
(-0.0835241133842752 0.0671595098462813 0)
(-0.0883048421781142 0.0703226118350069 -5.38359284040952e-17)
(-0.095314459523957 0.0755004076160216 -5.15532658654535e-17)
(-0.104004938044007 0.0821289915012825 4.72719605595153e-20)
(-0.113214438976829 0.088779477510505 -4.49386593150428e-17)
(-0.122302067375334 0.0938355199100954 -4.12065601437629e-17)
(-0.130985931223354 0.0965311678813939 3.78328580680848e-17)
(-0.138905271903943 0.0962049852964568 -3.46270197948475e-17)
(-0.14597101834274 0.0925314948876179 0)
(-0.152654845356229 0.0857435647847148 2.94920562554899e-17)
(-0.159119692736457 0.0766592618255428 5.37206743675323e-20)
(-0.165073035003322 0.0656966925184793 -2.58607288826027e-17)
(-0.17059915096604 0.053165860630188 -1.2213895100225e-17)
(-0.176258324385912 0.0395687719298952 -1.17844095127124e-17)
(-0.183288609099239 0.025343352699346 -5.51230156329817e-18)
(-0.195576837069395 0.0119456383996699 1.27991057663098e-18)
(-0.20931864735286 0.00511361780047882 -8.85404876338786e-24)
(-0.216929720226662 0.00294106141890284 -3.37070583115236e-20)
(-0.219662713622763 0.00142208334876422 -3.18818733982357e-20)
(-0.219642597673318 0.000475917214575341 0)
(-0.217390804035173 -0.000214486216710032 0)
(-0.213500838903063 -0.000746086952081241 -2.88355226066382e-20)
(-0.208252071967304 -0.00117605726648864 2.79545712505726e-20)
(-0.201892140275335 -0.00153256033525606 -2.75841523896804e-20)
(-0.194589796176101 -0.00183217013597302 2.70039387212634e-20)
(-0.186496753286346 -0.00208476756284233 0)
(-0.177738945484763 -0.00229695491472066 0)
(-0.168429396034341 -0.00247327836745 0)
(-0.158668622555854 -0.00261743839369574 0)
(-0.148547570959767 -0.00273251943753011 1.32249249726582e-20)
(-0.13814830391417 -0.00282134532232631 -1.31688448288207e-20)
(-0.127544841591467 -0.00288651138913298 -1.3293291792614e-20)
(-0.116803673658085 -0.00293047762864794 2.66465229877986e-20)
(-0.105984204369982 -0.00295555636526469 -1.3374541047441e-20)
(-0.0951392093720385 -0.00296392948549756 0)
(-0.0843152529903495 -0.00295763344914927 0)
(-0.073553148641229 -0.00293855876777885 0)
(-0.06288840411081 -0.00290844205506071 0)
(-0.0523516819173026 -0.00286886747654097 -7.05831376951686e-21)
(-0.0419692494521044 -0.00282126435013835 -1.60357392616372e-15)
(-0.0317634246229897 -0.00276691281958489 -1.63159529781361e-15)
(-0.0217530064124216 -0.00270694741848268 -7.30590238936782e-21)
(-0.011953677595745 -0.00264236631580496 -7.43655879168301e-21)
(-0.00237840622132382 -0.00257404499154658 7.50954579040452e-21)
(0.00696221403437308 -0.00250263653790881 0)
(0.0160595772050265 -0.00242868446394586 0)
(0.0249068179628057 -0.00235279798841428 0)
(0.0334985220134844 -0.00227554109639164 0)
(0.0418303728869575 -0.00219727878827453 0)
(0.0498990361764517 -0.00211826574782749 0)
(0.0577018558493663 -0.00203872353080303 0)
(0.0652366214940613 -0.00195878186025398 0)
(0.0725014458757986 -0.00187850987713974 0)
(0.0794945366563256 -0.00179792476612272 0)
(0.0862140342543378 -0.0017169875886075 -8.30746926260306e-21)
(0.0926578295960265 -0.00163560518929682 1.89397362663789e-15)
(0.0988233957386667 -0.00155362934227629 1.9055159105983e-15)
(0.104707596628662 -0.00147085347271196 -8.55484193018258e-21)
(0.110306505529155 -0.00138701054333589 1.73351743658388e-20)
(0.115615170775489 -0.00130176252713853 -1.74974890961276e-20)
(0.120627408350348 -0.00121469751448029 1.77372183527083e-20)
(0.125335468088428 -0.00112530537407313 -1.7916701304681e-20)
(0.129729795333464 -0.00103297862246056 0)
(0.133798481747956 -0.000936957106250333 1.84085972966152e-20)
(0.137527030387596 -0.000836348874715226 -1.8620977063763e-20)
(0.140897322930195 -0.00073000000233108 0)
(0.143887569816933 -0.000616583948664279 0)
(0.14647010893525 -0.000494314043623263 0)
(0.148612228583092 -0.000361147779666125 0)
(0.150271429141119 -0.000214592157101293 0)
(0.151396547348838 -5.2229378704034e-05 0)
(0.151920899713242 0.00013211223218191 0)
(0.151766995190437 0.000344335458240405 -4.26202952142586e-20)
(0.150815303973844 0.000596046329527992 8.69290495920376e-20)
(0.148941859447529 0.000895603823953149 -8.8940943553171e-20)
(0.145921803409764 0.00126777770398431 4.55840684828425e-20)
(0.141553225889062 0.00172895904678306 0)
(0.135354520648352 0.00233816192980601 0)
(0.127014818854489 0.00316421153666016 0)
(0.115260781630838 0.00431855018117874 -5.40657449335733e-20)
(0.0994414701084887 0.00709574065139934 -3.61924316659516e-18)
(0.0906779854924751 0.0117470560990841 -7.3658302919047e-18)
(0.090267997953566 0.0185188875772197 1.40899641073651e-17)
(0.0933783049173448 0.0264519052093271 5.23627906298404e-20)
(0.0993159006878347 0.0360558112347945 5.10446980493219e-17)
(0.107367479669946 0.0473151362929743 -4.79028084770348e-20)
(0.117577850679514 0.0605604799189101 4.58949604278097e-20)
(0.130595503922938 0.0760126395089358 2.26100082222406e-17)
(0.146292483350047 0.0932733129479233 -2.17771901129791e-17)
(0.164324296518288 0.111792274031422 -2.11591287527504e-17)
(0.184429727133091 0.131156067725816 -4.01002363659334e-20)
(0.206528137233436 0.150940950555579 4.8720740135779e-20)
(0.229357277972854 0.170309864036742 -1.94425055026584e-20)
(0.251627739937224 0.189433792696606 3.88600314736069e-20)
(0.27376609037307 0.209499378402655 -1.98741294546363e-17)
(0.296616334454029 0.231406886829778 1.92237994559866e-20)
(0.32138146464744 0.256191016669985 -1.95983279145649e-17)
(0.350141341144775 0.285361802498484 -9.22411808639794e-21)
(0.388429756140714 0.320725479326769 8.90281653361508e-21)
(0.441479538705924 0.359362245479258 2.00081454809541e-21)
(0.510118159352467 0.395119023267417 -1.89315692269446e-21)
(0.599432786255308 0.422156157418279 0)
(0.710576755532241 0.425587757863457 0)
(0.839907462944529 0.381652196248669 -2.63572987394751e-20)
(0.926700535371516 0.264991738474103 -4.5504166916016e-18)
(0.911848952072912 0.132466036823136 0)
(0.802797740124968 0.0403820351889829 -7.35936266069153e-19)
(0.690478558675713 0.00751364877993764 0)
(0.715715536296724 0.00126394426154985 0)
(0.704811076309951 -0.0135256303185251 6.43926191201507e-19)
(0.663117831816539 -0.052352599937407 5.81127487772694e-21)
(0.474952777121541 -0.0802733622109126 1.72909176008339e-21)
(0.115755439082753 -0.0126992805412477 2.10968223313053e-17)
(-0.100989550112463 0.0720076603642101 2.92164325791694e-17)
(-0.114447143219042 0.079689902372329 0)
(-0.102428048011078 0.0783657983409526 0)
(-0.0930496144196804 0.076257176502301 3.29621949733641e-17)
(-0.0902354746614993 0.0757245979630324 3.54360764243787e-17)
(-0.0895398232106127 0.074455855584936 -3.68382423835851e-17)
(-0.0914118126924709 0.0747576727423454 0)
(-0.0947690221048788 0.0764496295030507 -3.74561560196683e-17)
(-0.0999823580296803 0.0800357471635229 5.82868924978056e-22)
(-0.107064210089588 0.0853722206852809 -3.43838366142883e-17)
(-0.115393041565227 0.0917842410867507 3.17830058032836e-17)
(-0.123929546628284 0.0978826609327532 2.86839537755782e-22)
(-0.132231490550487 0.102157610118398 2.63393710524144e-17)
(-0.140122921852911 0.103939427305876 -2.39160457746986e-17)
(-0.147387004614498 0.102699294375624 4.5669479292755e-20)
(-0.154016305257722 0.0982044815602828 -3.91297306009565e-20)
(-0.160438870969024 0.0906627851862352 0)
(-0.16674151876722 0.0808432561719013 1.73998233921442e-17)
(-0.172670186942591 0.0691898730873595 1.64252287858298e-17)
(-0.178324847194182 0.0560375372590693 0)
(-0.184178829318634 0.041895317029536 -7.49150040055337e-18)
(-0.191118253182197 0.0272332389736604 2.78775963846253e-20)
(-0.202046922035113 0.0134250227568775 -8.51107211634354e-19)
(-0.21335238836324 0.00612333118064157 2.85721647678149e-24)
(-0.219340235942935 0.00340588048170236 -2.1719699564201e-20)