/*--------------------------------*- C++ -*----------------------------------*\
  =========                 |
  \\      /  F ield         | OpenFOAM: The Open Source CFD Toolbox
   \\    /   O peration     | Website:  https://openfoam.org
    \\  /    A nd           | Version:  7
     \\/     M anipulation  |
\*---------------------------------------------------------------------------*/
FoamFile
{
    version     2.0;
    format      ascii;
    class       volVectorField;
    location    "9000";
    object      wallShearStress;
}
// * * * * * * * * * * * * * * * * * * * * * * * * * * * * * * * * * * * * * //

dimensions      [0 2 -2 0 0 0 0];

internalField   uniform (0 0 0);

boundaryField
{
    bottomWall
    {
        type            calculated;
        value           nonuniform List<vector> 
120
(
(-0.00495996641224769 4.16834032576596e-05 5.59001378427131e-23)
(-0.00601503840988131 0.000166313828688507 1.15136712217867e-19)
(-0.00422429768666036 0.000516096491244985 0)
(-0.00023583871633369 0.000200908537250299 1.00113354119264e-18)
(0.0022322747517785 -0.000848736171061095 1.22921842286787e-22)
(0.00209740449864641 -0.00113672547330673 4.43163672466788e-22)
(0.00143118817019741 -0.000930094896229242 2.21209436208192e-18)
(0.00109618408068214 -0.000792034252166184 -2.24152166459777e-18)
(0.000866712669271234 -0.000671334439068966 6.34997545313907e-16)
(0.000757599437146801 -0.000600289044705304 6.36733354625884e-16)
(0.000666224814586151 -0.000527129085720353 -5.5727712923034e-22)
(0.000617879862880221 -0.000483160833456071 1.1098282064924e-21)
(0.000587377223037592 -0.000455751624292998 -1.11167383351231e-21)
(0.00057987120932369 -0.000448092408130611 2.27052091335344e-18)
(0.000599270977607715 -0.000461668245500806 2.26700985203879e-18)
(0.000646695304346311 -0.00049536179630781 2.20302355080538e-21)
(0.000709306857162375 -0.000537204905464646 2.23736660193187e-18)
(0.00077412349732341 -0.000571542375862069 -4.45082944291685e-18)
(0.00083893497243845 -0.000593200759824536 2.20435988556123e-18)
(0.000896038397752624 -0.000594944361663465 2.19785483239446e-18)
(0.000935212319190215 -0.000570417635655776 -2.17778732919467e-18)
(0.000960063919909275 -0.000522528817601947 2.15561042064858e-18)
(0.000983648751862522 -0.000462984195068437 8.48602556582416e-24)
(0.00100328220365443 -0.000394330983834709 -2.10480695488917e-18)
(0.00101606519310804 -0.000316726556925464 3.61111864572607e-35)
(0.00102286949065618 -0.00023138617187538 0)
(0.000999214962743192 -0.000137876101358227 1.49336183175621e-16)
(0.00109066874384767 -5.76678389248648e-05 1.49008786979242e-16)
(0.00139146879516624 -2.41959812362967e-05 -4.62876252141809e-25)
(0.00165096436782198 -2.18846627841675e-05 -1.34621216882805e-32)
(0.00179928062535091 -1.90097542504499e-05 -0)
(0.00189681149030499 -1.72892367385737e-05 1.55418996086405e-16)
(0.00195502729890042 -1.60175842886802e-05 1.56930335926439e-16)
(0.00198556048064992 -1.48551595915843e-05 0)
(0.0019929666489592 -1.37193614166819e-05 -1.80432604795476e-53)
(0.00198137573213854 -1.25962640487828e-05 -1.17131319801224e-51)
(0.00195377164548295 -1.15019906838889e-05 -0)
(0.00191247506275858 -1.04169057247781e-05 1.8311671259535e-21)
(0.00185939666063133 -9.35142465148031e-06 -1.5242269528925e-16)
(0.00179627499446607 -8.31611606950701e-06 -1.55424410602422e-16)
(0.00172467894601079 -7.32126999684664e-06 1.86941412255561e-21)
(0.00164605745208782 -6.37575667623838e-06 1.90186986779956e-21)
(0.00156174199681735 -5.4861695358551e-06 -1.91292632190659e-21)
(0.00147295199144199 -4.65708560631011e-06 1.94828879676465e-21)
(0.00138079601629083 -3.89096714994006e-06 -1.96245840559079e-21)
(0.00128627228644163 -3.18859390440991e-06 -0)
(0.00119027157310436 -2.54924664186805e-06 1.74463155304598e-16)
(0.00109358024285973 -1.97108399636331e-06 1.78028819923313e-16)
(0.000996885596046787 -1.45137715289123e-06 2.07853928316853e-21)
(0.000900781708565022 -9.86795460875015e-07 -1.05142699969838e-21)
(0.00080577643069276 -5.73589547557122e-07 1.07100871371758e-21)
(0.000712298671780547 -2.07794807616834e-07 -2.16706005049455e-21)
(0.000620706091839268 1.14648316980465e-07 1.82676505822673e-16)
(0.000531292741742485 3.9776338762027e-07 1.85806874420448e-16)
(0.000444296394146584 6.45483064849532e-07 5.6315441357677e-22)
(0.000359906022596257 8.61417602402318e-07 -8.55108653705296e-42)
(0.000278267961140485 1.04951922177184e-06 -3.37051303392373e-32)
(0.000199493139953036 1.21956563631308e-06 2.93649365972967e-22)
(0.000123661140036595 1.39431024287215e-06 -4.44958316906906e-22)
(5.08261861318596e-05 1.56719019196154e-06 1.49958590787834e-22)
(-1.89758334984112e-05 1.70980143737219e-06 0)
(-8.57275557218356e-05 1.82266551124159e-06 -3.02529660892943e-22)
(-0.00014942396831123 1.9178521465917e-06 3.01142303712431e-22)
(-0.00021006754934731 1.99993756468293e-06 -3.50458204132046e-32)
(-0.000267667827488098 2.07083070478746e-06 -0)
(-0.000322237161783281 2.1323609840663e-06 6.01185111125408e-22)
(-0.000373788647953822 2.18615344889128e-06 -5.99211578844902e-22)
(-0.000422333537335899 2.23366468659305e-06 -0)
(-0.000467879158017621 2.27620091049969e-06 0)
(-0.000510426450833098 2.31492517433129e-06 0)
(-0.000549968032067967 2.35089820329025e-06 0)
(-0.000586485261159101 2.38505072073023e-06 0)
(-0.000619946502730609 2.41826843532596e-06 -2.00349820189288e-16)
(-0.000650302716566545 2.45128506743939e-06 -3.99775256072425e-16)
(-0.000677486448106718 2.48488750595791e-06 -1.99382668167167e-16)
(-0.000701403674899736 2.51959992645621e-06 4.81098570132358e-21)
(-0.000721935628163597 2.55622537245434e-06 -2.4074140624901e-21)
(-0.00073892116125821 2.59496360703185e-06 2.41684233767696e-21)
(-0.000752168625250773 2.6368825681643e-06 -2.41842347464709e-21)
(-0.000761412099622024 2.68170744707332e-06 -2.03202165900424e-16)
(-0.000766366009565127 2.73201465793153e-06 -2.01888290261397e-16)
(-0.000766599918249117 2.78694480608371e-06 2.44289512412187e-21)
(-0.000761749090206693 2.85108874080679e-06 -2.45751080458192e-21)
(-0.000751126346555596 2.91525780903273e-06 4.93363516151329e-21)
(-0.000734091116953251 2.98961633113349e-06 -2.47788146981789e-21)
(-0.000709272068336069 3.04977929660547e-06 4.99746471664274e-21)
(-0.000675768519258176 3.13037526279679e-06 -1.00593253959048e-20)
(-0.000630890294446344 3.16630931873576e-06 5.0682547302024e-21)
(-0.00057368072866788 3.25452299566868e-06 5.13333710287814e-21)
(-0.000498082977098369 3.21027897893055e-06 -1.03833542888391e-20)
(-0.000404738079248416 3.20664292196553e-06 3.18090931964885e-26)
(-0.000273338349075042 2.42782367566384e-06 6.56098781874779e-25)
(-0.000105675172279443 -1.68984830526112e-06 -7.3468396926393e-40)
(-8.33536759064105e-05 -9.54385243253183e-06 -5.54302940009778e-21)
(-0.000145684153923332 -3.88699714838557e-05 1.4235065818397e-18)
(-0.000207346638041388 -7.59715442891441e-05 1.52272996861865e-23)
(-0.00029868139773418 -0.000132986862842605 2.78591821596844e-18)
(-0.000410290355014488 -0.000211409939010203 2.79020456540706e-18)
(-0.0005522044392159 -0.000318930053772302 -2.77200513874942e-18)
(-0.000742231392868374 -0.0004656220784497 2.75657676142762e-18)
(-0.000972311499992746 -0.000646694646075099 -2.74114596982289e-18)
(-0.00123604757408462 -0.000855166182681518 -2.72502520128076e-18)
(-0.00153050854020572 -0.00108520176670423 -1.65509604595778e-34)
(-0.00185550459342373 -0.00133067100274066 0)
(-0.00217037908547453 -0.0015645972469934 2.6785438696986e-18)
(-0.00246671410773592 -0.00179209624760595 2.66818480394e-18)
(-0.00278435491872398 -0.00204387340123192 2.6578613962026e-18)
(-0.00314712099105364 -0.00233982033336814 2.64480861960092e-18)
(-0.00358932741774228 -0.00270626811036477 2.62646991563427e-18)
(-0.00418249461721532 -0.00319405095656881 -2.59295769729537e-18)
(-0.00509970646439374 -0.00389067287084382 -2.53275550478834e-18)
(-0.00637286787607312 -0.00472654830943764 2.44050289421505e-18)
(-0.00794472120413219 -0.00556991010944746 -2.30689984731584e-18)
(-0.0100290974162397 -0.00636863124447885 -2.12388903978502e-18)
(-0.0125273481841655 -0.00676952536391277 1.88353685684142e-18)
(-0.0148918600616042 -0.0060880524627584 2.70833898429455e-35)
(-0.0137118569418755 -0.0034789287096823 -7.03551895590385e-19)
(-0.00945202925560598 -0.00113229698422812 -3.76158192263132e-37)
(-0.00523688069797698 -0.000134374245928741 9.98581642435008e-20)
(-0.00396213855745123 3.6226937628868e-05 0)
)
;
    }
    topWall
    {
        type            calculated;
        value           nonuniform List<vector> 
120
(
(-0.00526124644998558 -1.41331682808022e-06 0)
(-0.0052545612949185 -1.33550156900033e-06 0)
(-0.00524391672393397 -1.26752167692075e-06 0)
(-0.0052296248314463 -1.20841257042834e-06 0)
(-0.00521200397712058 -1.15798369666529e-06 0)
(-0.00519138172585298 -1.11602405149306e-06 0)
(-0.00516808773187534 -1.081985898803e-06 0)
(-0.00514244257132858 -1.05508940527049e-06 0)
(-0.0051147500299881 -1.0344434186543e-06 0)
(-0.00508529207418312 -1.01909963435331e-06 0)
(-0.00505432529848597 -1.00809670588627e-06 0)
(-0.00502207881988395 -1.00050025385995e-06 0)
(-0.00498875355290956 -9.95436812411209e-07 0)
(-0.00495452274184858 -9.92120552175625e-07 0)
(-0.00491953354871758 -9.89869848694864e-07 0)
(-0.00488390926992467 -9.88112458861842e-07 0)
(-0.00484775203953097 -9.86389646208809e-07 0)
(-0.00481114603497793 -9.8436043262652e-07 0)
(-0.0047741608978425 -9.81792859167811e-07 0)
(-0.00473685499032463 -9.78550009416116e-07 0)
(-0.00469927835666425 -9.74575575409587e-07 0)
(-0.00466147537098744 -9.69880470689198e-07 0)
(-0.00462348705800856 -9.64529955653078e-07 0)
(-0.00458535307441096 -9.58631524951147e-07 0)
(-0.00454711332845839 -9.52323046532772e-07 0)
(-0.00450880924031893 -9.45762292352262e-07 0)
(-0.00447048464842625 -9.39117018295105e-07 0)
(-0.0044321863873523 -9.32557016990872e-07 0)
(-0.00439396457285027 -9.26247037141072e-07 0)
(-0.00435587261711247 -9.20340994436335e-07 0)
(-0.0043179670321327 -9.14978278362383e-07 0)
(-0.00428030704212204 -9.10279751064816e-07 0)
(-0.00424295406636962 -9.06347316745544e-07 0)
(-0.00420597109937045 -9.03261578276365e-07 0)
(-0.00416942204317616 -9.0108409846525e-07 0)
(-0.0041333710163433 -8.99856096559013e-07 0)
(-0.00409788167172102 -8.99602456732808e-07 0)
(-0.00406301656395937 -9.00331269983749e-07 0)
(-0.00402883653749983 -9.0203807984738e-07 0)
(-0.00399540025643459 -9.04706706081897e-07 0)
(-0.00396276365487797 -9.08312245123414e-07 0)
(-0.00393097983442496 -9.12825722467565e-07 0)
(-0.0039000983071619 -9.18198239504709e-07 0)
(-0.00387016520360561 -9.24421892182789e-07 0)
(-0.00384122401527202 -9.31436906040279e-07 0)
(-0.00381331292063434 -9.39184636089891e-07 0)
(-0.00378646734977198 -9.47666003862643e-07 0)
(-0.00376071963392619 -9.56834784256114e-07 0)
(-0.00373609856094703 -9.66667673571115e-07 0)
(-0.00371262994497844 -9.7714294317131e-07 0)
(-0.00369033674737267 -9.8824359696791e-07 0)
(-0.00366923939168816 -9.99961004318922e-07 0)
(-0.00364935612107451 -1.01229364016476e-06 0)
(-0.00363070333481051 -1.02524705320283e-06 0)
(-0.00361329593813984 -1.03883392984752e-06 0)
(-0.00359714769776016 -1.05307407987882e-06 0)
(-0.00358227160200174 -1.06799427720969e-06 0)
(-0.00356868020719287 -1.08362812728896e-06 0)
(-0.00355638600489318 -1.10001638124311e-06 0)
(-0.003545401755509 -1.1172055422109e-06 0)
(-0.00353574077759505 -1.13524711952025e-06 0)
(-0.00352741725845555 -1.15419912796154e-06 0)
(-0.00352044659671355 -1.17412614058106e-06 0)
(-0.00351484568580948 -1.19509762016898e-06 0)
(-0.00351063317900552 -1.21718639963228e-06 0)
(-0.00350782956712218 -1.24047429888255e-06 0)
(-0.00350645802831421 -1.26508572619126e-06 0)
(-0.00350654497725616 -1.2910096063706e-06 0)
(-0.0035081121009823 -1.31875324314514e-06 0)
(-0.00351121822659822 -1.34861733676207e-06 0)
(-0.0035159028703293 -1.38007766365058e-06 0)
(-0.00352219729127739 -1.41307459592552e-06 0)
(-0.00353013239417415 -1.44768330838843e-06 0)
(-0.00353974269768972 -1.48402993293999e-06 0)
(-0.0035510662717166 -1.52219604462948e-06 0)
(-0.00356414345202384 -1.56224086640025e-06 0)
(-0.00357901640009142 -1.60421476490711e-06 0)
(-0.00359572876356563 -1.64815548689746e-06 0)
(-0.00361432515730793 -1.6940837469869e-06 0)
(-0.00363485049592026 -1.74199925365144e-06 0)
(-0.00365734920570045 -1.79187766798876e-06 0)
(-0.00368186433316283 -1.84366751470711e-06 0)
(-0.00370843655225171 -1.89728707990043e-06 0)
(-0.00373710305760444 -1.95262072600881e-06 0)
(-0.0037678963346531 -2.009515302957e-06 0)
(-0.00380084280550175 -2.06777631957413e-06 0)
(-0.0038359613425484 -2.1271640039703e-06 0)
(-0.00387326165094505 -2.18738947136785e-06 0)
(-0.0039127425201803 -2.24811098249045e-06 0)
(-0.00395438995652629 -2.30893066085386e-06 0)
(-0.00399817520217265 -2.36939148389743e-06 0)
(-0.0040440526686346 -2.42897539655905e-06 0)
(-0.00409195780211612 -2.48710187874337e-06 0)
(-0.00414180492282381 -2.54312845986231e-06 0)
(-0.00419348508147583 -2.59635214544112e-06 0)
(-0.00424686398100418 -2.64601324439927e-06 0)
(-0.00430178004316697 -2.69130129484231e-06 0)
(-0.0043580426748141 -2.73136337649244e-06 0)
(-0.00441543085517768 -2.76531632283561e-06 0)
(-0.00447369210688331 -2.79226163554956e-06 0)
(-0.00453254206516023 -2.81130687298199e-06 0)
(-0.00459166465582999 -2.82158743696226e-06 0)
(-0.00465071321386661 -2.82230117667849e-06 0)
(-0.00470931257611325 -2.81273796826196e-06 0)
(-0.00476706234943944 -2.7923153667484e-06 0)
(-0.00482354117604312 -2.76061098194127e-06 0)
(-0.00487831268887492 -2.71743725326073e-06 0)
(-0.00493093326774536 -2.66284705320854e-06 0)
(-0.00498095988613726 -2.59713973900115e-06 0)
(-0.00502795956000979 -2.52094226584083e-06 0)
(-0.00507152016782308 -2.43518411985702e-06 0)
(-0.00511126100293596 -2.34109238817412e-06 0)
(-0.00514684329936714 -2.24017036774377e-06 0)
(-0.00517798015611181 -2.13415609246837e-06 0)
(-0.0052044450917101 -2.02496051194104e-06 0)
(-0.00522607883562159 -1.91459776466209e-06 0)
(-0.00524279369126594 -1.80509725978495e-06 0)
(-0.0052545753547428 -1.69842144672989e-06 0)
(-0.00526148149008758 -1.59644855560868e-06 0)
(-0.00526364308224625 -1.50091001675331e-06 0)
)
;
    }
    inlet_half0
    {
        type            cyclic;
    }
    inlet_half1
    {
        type            cyclic;
    }
    outlet_half0
    {
        type            cyclic;
    }
    outlet_half1
    {
        type            cyclic;
    }
    sideRight_half0
    {
        type            empty;
    }
    sideRight_half1
    {
        type            empty;
    }
    sideLeft_half0
    {
        type            empty;
    }
    sideLeft_half1
    {
        type            empty;
    }
}


// ************************************************************************* //
