/*--------------------------------*- C++ -*----------------------------------*\
  =========                 |
  \\      /  F ield         | OpenFOAM: The Open Source CFD Toolbox
   \\    /   O peration     | Website:  https://openfoam.org
    \\  /    A nd           | Version:  7
     \\/     M anipulation  |
\*---------------------------------------------------------------------------*/
FoamFile
{
    version     2.0;
    format      ascii;
    class       volScalarField;
    location    "3000";
    object      nut;
}
// * * * * * * * * * * * * * * * * * * * * * * * * * * * * * * * * * * * * * //

dimensions      [0 2 -1 0 0 0 0];

internalField   nonuniform List<scalar> 
15600
(
1.23778769552979e-07
1.11738017464192e-07
6.59955963210882e-08
2.56716639761032e-08
5.62266464951051e-09
3.07603706384891e-09
3.10821857185731e-09
2.186930419848e-09
1.56597891632834e-09
1.32080017474789e-09
1.26030356074648e-09
1.34133781027903e-09
1.57934507852666e-09
2.01043305395677e-09
2.72109532772291e-09
3.82889121038173e-09
5.49734032996481e-09
7.95297767751826e-09
1.15258182239248e-08
1.66199500399349e-08
2.36611098376009e-08
3.3028598600038e-08
4.50622927028817e-08
5.97524359110316e-08
7.62868911999707e-08
9.33598229853519e-08
1.09048554243315e-07
1.21874844087269e-07
1.53848160796916e-07
2.00312151117019e-07
2.41916499366295e-07
2.7971712962133e-07
3.14838701362796e-07
3.47581705355741e-07
3.78230754726709e-07
4.07000227330555e-07
4.3380063620054e-07
4.57924945814211e-07
4.79718242770124e-07
4.99250908301169e-07
5.16585746385791e-07
5.31809633425202e-07
5.45024787148321e-07
5.56345336899501e-07
5.65892822180907e-07
5.73792142837713e-07
5.80168269380342e-07
5.85143505128449e-07
5.88835653185925e-07
5.91356628122018e-07
5.92811689351325e-07
5.93299060801125e-07
5.92909712735684e-07
5.91727597807737e-07
5.89829733648881e-07
5.87286468321793e-07
5.84161940310124e-07
5.80514335765811e-07
5.76396206111832e-07
5.71854831197072e-07
5.66932525802618e-07
5.61666968367704e-07
5.56091453262904e-07
5.50235151304461e-07
5.44123314951914e-07
5.37777454398287e-07
5.31215559951437e-07
5.24452327867439e-07
5.17499105190066e-07
5.10363928009608e-07
5.03052110965021e-07
4.95566224124276e-07
4.87907671917716e-07
4.80076684872406e-07
4.72070042977995e-07
4.63878346161859e-07
4.55488580737856e-07
4.4687802731186e-07
4.38017378298453e-07
4.28865787342146e-07
4.19378843894284e-07
4.09487414906456e-07
3.9911953307508e-07
3.8815466805646e-07
3.7647959271728e-07
3.63881952581985e-07
3.50277667743012e-07
3.35603611356531e-07
3.19331491559101e-07
3.00797994968979e-07
2.7820686774369e-07
2.48353436995814e-07
2.28253290553181e-07
2.37838744601732e-07
2.45583584714842e-07
2.52958742101851e-07
2.53385005753568e-07
2.49463598143275e-07
2.42016749502548e-07
2.346244147368e-07
2.26799580622021e-07
2.19338417793651e-07
2.11667550271481e-07
2.03739148583114e-07
1.9235076264539e-07
1.77594729806278e-07
1.60745673375357e-07
1.43277166900501e-07
1.26495911473316e-07
1.12296874969471e-07
1.03471239054588e-07
1.0072736228367e-07
1.045928003709e-07
1.19292454241283e-07
1.50514191426048e-07
1.94589619500131e-07
1.93222619395683e-07
1.60520306672307e-07
1.25438824913339e-07
1.23835826429782e-07
1.02980151249246e-05
9.29248801987287e-06
5.41340845987975e-06
2.21860723727275e-06
5.28441171283239e-07
2.91037760453573e-07
2.94196898979811e-07
2.09019885815698e-07
1.4938357387026e-07
1.25298744543549e-07
1.18840792391408e-07
1.25622635970107e-07
1.46973853190626e-07
1.85956284617131e-07
2.50223067306783e-07
3.50268594989095e-07
5.01017511701318e-07
7.22504475410665e-07
1.04418354229838e-06
1.50272016475027e-06
2.13640827907722e-06
2.97411391400616e-06
4.04200644577616e-06
5.33884523763725e-06
6.78477513331807e-06
8.24922746395665e-06
9.5107572564266e-06
1.03136044055401e-05
1.27563454342745e-05
1.64674061834267e-05
1.97391592972388e-05
2.26479144387808e-05
2.53117713907519e-05
2.77661514743069e-05
3.00428267979734e-05
3.21624032498196e-05
3.41097764273277e-05
3.5842941116917e-05
3.74041697564887e-05
3.88049772120774e-05
4.00522869147116e-05
4.11539279591909e-05
4.21181195033322e-05
4.29533647766535e-05
4.36682669956744e-05
4.42713565767518e-05
4.47709559478631e-05
4.51750649587008e-05
4.54912930921372e-05
4.57268085809843e-05
4.58883181679416e-05
4.59820645798186e-05
4.60138273617929e-05
4.59889478249445e-05
4.59123419308767e-05
4.57885191608107e-05
4.56216142299198e-05
4.54154035030265e-05
4.51733235909517e-05
4.48984921044747e-05
4.45937244335406e-05
4.42615516615248e-05
4.39042337119457e-05
4.35237722363898e-05
4.3121919769952e-05
4.27001880402474e-05
4.2259860746313e-05
4.18020020260879e-05
4.13274461669388e-05
4.08368043534831e-05
4.03304967109586e-05
3.98087481233017e-05
3.92717034824852e-05
3.87194226952287e-05
3.81516920519873e-05
3.75678473298028e-05
3.69669334682964e-05
3.63472578015989e-05
3.57066413289688e-05
3.50420191018224e-05
3.43499748931422e-05
3.36252109311088e-05
3.28620939954242e-05
3.20512437441817e-05
3.11835690681858e-05
3.02422369754823e-05
2.92111372208236e-05
2.808398148411e-05
2.68247757110938e-05
2.53791324843566e-05
2.35912915966855e-05
2.12040071894244e-05
1.96138049394929e-05
2.05397144009113e-05
2.12099626880073e-05
2.18353959722525e-05
2.18958748034563e-05
2.16110594848049e-05
2.10451065479854e-05
2.04754900256583e-05
1.98484694612601e-05
1.92337833258053e-05
1.85818123434045e-05
1.7883680727563e-05
1.68758349855319e-05
1.5595049990628e-05
1.41434990417908e-05
1.26392235827126e-05
1.11950897102885e-05
9.98044752272862e-06
9.22220849130356e-06
8.94840533185785e-06
9.20998327183336e-06
1.03210709956493e-05
1.25656616389548e-05
1.53038578914357e-05
1.43141559174741e-05
1.17953204400712e-05
9.58291291946705e-06
1.00179745450911e-05
8.56132083343274e-05
8.13929877617613e-05
5.91448658655013e-05
2.98872135895246e-05
8.32869123849108e-06
4.2286372456667e-06
4.33733371848666e-06
3.14112712953531e-06
2.25201427162123e-06
1.8794937641909e-06
1.77078684890773e-06
1.85763368116598e-06
2.15834284240215e-06
2.71359184940154e-06
3.62867709630231e-06
5.04282086902548e-06
7.14261429721349e-06
1.01698717839193e-05
1.44437579746966e-05
2.02882941151733e-05
2.79336461618194e-05
3.74371949718959e-05
4.86639738926524e-05
6.10755575283769e-05
7.36409676231767e-05
8.52903182599409e-05
9.54731315548768e-05
0.000106214315735665
0.000126321151800525
0.000150074294630942
0.000169380331933668
0.000185883084231398
0.000200643973135074
0.000213945601365843
0.000226086235221383
0.000237312974293327
0.000248052673895209
0.000257619447013991
0.000266225203443632
0.000273940049055308
0.000280821617567208
0.000286925688600932
0.000292305632975278
0.000297012754252684
0.000301096175471305
0.000304602584806215
0.000307576063838569
0.000310057916851076
0.000312086649070744
0.000313697964903236
0.000314924861966364
0.000315797765622663
0.00031634465044353
0.000316591242865905
0.000316561151400096
0.000316276003292786
0.000315755628983353
0.00031501816495535
0.000314080157266592
0.000312956667942991
0.000311661358966005
0.000310206574837963
0.000308603402710143
0.000306861725798496
0.00030499025885637
0.000302996579409923
0.000300887179433657
0.000298667485538747
0.000296341801404384
0.000293913347562279
0.000291384394072018
0.000288756295389858
0.000286029949146565
0.000283205679049803
0.000280282298099991
0.000277256022159471
0.000274121049592106
0.000270867942946327
0.000267484543783608
0.000263953941399725
0.000260256322149918
0.000256362026807097
0.000252237415278913
0.00024782910998201
0.000243080390330927
0.000237892592819002
0.000232320586047669
0.000226341029339888
0.000219595631202553
0.000211831200146533
0.000201908499637505
0.000188419361341022
0.000178418150015961
0.000181514722790727
0.000185554455216912
0.000189490600715028
0.000190084677634131
0.000188443611636203
0.00018505046857496
0.000181470887212741
0.00017740899166187
0.000173214216930189
0.000168589690374246
0.000163390761549879
0.000155912273576875
0.000146334459055472
0.000135301399341514
0.000123573768739066
0.000111952688739407
0.000101801691549337
9.50126017593012e-05
9.18641846681468e-05
9.2757752064081e-05
9.96934944840367e-05
0.000113789888670907
0.000128426917132815
0.000121600396028825
0.00010399961430868
8.72450992031288e-05
8.42741298537647e-05
0.000239110687453423
0.000235911229224504
0.000186130350951834
0.000108251564199808
4.37211328397818e-05
2.49421402202425e-05
2.61467652423069e-05
1.9763285735936e-05
1.44261430753074e-05
1.20180484142714e-05
1.12248890146945e-05
1.15982458421731e-05
1.32057169207354e-05
1.62019908709372e-05
2.10438634609966e-05
2.82715777255431e-05
3.85203886532369e-05
5.24238405029111e-05
7.06783449838956e-05
9.36697922781989e-05
0.000121177991471204
0.000152415703819009
0.000186321827409229
0.000220910933162732
0.000253304956921908
0.000281465083548484
0.000306668381742588
0.000337484839419224
0.000390764944063558
0.00044824540191061
0.000493871072781603
0.000532750519644246
0.000567109851753145
0.000597798130311572
0.000625675600395584
0.000651728225225824
0.000675851997557962
0.000697317805655329
0.000716550061292736
0.000733722574348678
0.000748991364058166
0.00076250106321569
0.00077438637599547
0.000784773545425825
0.000793780872289435
0.000801518733233667
0.000808089694448955
0.000813588553759232
0.000818102626419182
0.000821712030065158
0.000824490124127047
0.000826503986583858
0.000827814846282732
0.000828478638623957
0.000828546392822477
0.000828064618691517
0.00082707576127266
0.000825618476775314
0.000823727901205694
0.000821435913506227
0.00081877134493915
0.000815760174137446
0.000812425674315267
0.000808788540288277
0.000804866977766528
0.000800676780862828
0.000796231445580773
0.000791542221230546
0.000786618036716663
0.000781465604219625
0.000776089807322096
0.000770493943584708
0.000764680180768679
0.000758648325006444
0.000752393607224248
0.000745906623019514
0.00073917404046001
0.00073217526708098
0.000724883462881442
0.000717261791013829
0.000709265914434301
0.000700831388224583
0.000691882425358813
0.000682303089189686
0.000671963811020107
0.000660648422791022
0.000648402189910173
0.000635351393887012
0.00062061440567985
0.000603506906060223
0.000582044778163904
0.000552272056872947
0.000529783218875936
0.000535710901149954
0.000546081333047949
0.000556040551054052
0.000558943671178735
0.000556703750027964
0.000550630254536567
0.000543907697848352
0.000535803736144947
0.000526886354817164
0.000516509881112975
0.000504120089109001
0.000485704098357177
0.000461683043531206
0.00043370614068074
0.000403570905474024
0.000373240304062186
0.000346418604991147
0.000328416194801111
0.000319972060641222
0.000322233876921104
0.000340630698396159
0.000377946194500479
0.000415030034085572
0.000389423415259596
0.000327126068369266
0.000261215410239827
0.000237821742558738
0.000461080019378594
0.000458210742215078
0.000372798490926947
0.000220757879492765
0.000110654944000007
7.9846872931695e-05
8.83558454520498e-05
7.18108094297132e-05
5.46219001377371e-05
4.58669601544336e-05
4.24722709992748e-05
4.2908346555158e-05
4.72414598150658e-05
5.56397175595332e-05
6.90112197702035e-05
8.827531193357e-05
0.000114333913914778
0.000147707708718629
0.000188947144357007
0.000237753135443034
0.000292629944958946
0.000351458606391208
0.000412266064800151
0.000471596881405995
0.000524946559662978
0.000570502560301645
0.000613380127885008
0.000669577874915074
0.000764061454321322
0.000863595579413343
0.000942063625172141
0.00100883773409643
0.00106743136625753
0.0011195670232891
0.0011668799481582
0.00121053913460241
0.00125023063304806
0.00128556054472196
0.00131714093867208
0.00134527264565882
0.00137023240902457
0.00139227317243606
0.00141162877231984
0.00142851656634171
0.00144313874262319
0.00145568268719734
0.00146632146994731
0.00147521419063915
0.00148250666227416
0.00148833208312203
0.0014928119195635
0.00149605681293176
0.00149816741767398
0.00149923538469266
0.00149934407316823
0.00149856925939699
0.00149697990874102
0.00149463866734955
0.00149160233898378
0.00148792234252948
0.00148364507745846
0.0014788122548749
0.00147346115426876
0.00146762484551544
0.00146133235385099
0.00145460880382539
0.00144747560861268
0.00143995058889666
0.00143204798231288
0.00142377864994654
0.00141515107221737
0.00140617159023062
0.00139684139561525
0.00138715652697252
0.00137710782769738
0.00136667896468512
0.00135584715619551
0.00134457857041354
0.00133282879581527
0.00132053759626266
0.00130763104983093
0.00129400441275027
0.00127953116629657
0.00126402384669399
0.00124726478169446
0.00122890564891547
0.00120885778786836
0.00118729151140948
0.00116291954039094
0.00113446871774585
0.00109916872827397
0.00104985171269115
0.00101266163321017
0.00102296380494157
0.00104298615632633
0.00106195751201583
0.00107028593447958
0.0010702170507894
0.00106417610933034
0.00105685127157608
0.00104693957154615
0.00103495604405162
0.00101988795046494
0.00100050742736016
0.000970229359179664
0.000929749286623146
0.000882181458834515
0.000830690730870325
0.000778707442827973
0.000732977957484801
0.000703325641690662
0.00069110460541422
0.000698201425400074
0.000734120644685958
0.000803805315750231
0.000871723256125471
0.000820763402406511
0.000689699754886204
0.000539512996197833
0.000470883343294387
0.000750860406319372
0.000741052092976005
0.000617630921267917
0.000363439218058556
0.000196606989022246
0.000162622611279406
0.000196945159398479
0.000175746125596956
0.000141134885463411
0.000120604173216884
0.00011116393224072
0.000109800648625953
0.000116649742731652
0.000131775041416259
0.000156483963913823
0.00019175891480007
0.000238181973205897
0.000295446388748613
0.00036348148018099
0.000440890711609564
0.000524716275682837
0.000611698536626786
0.000699271542322701
0.000782769514024827
0.000856699195635527
0.000920595958686659
0.000984220491916531
0.00107094392902953
0.00121190741827948
0.00135823987589613
0.00147372874094132
0.00157214080022905
0.00165831878963525
0.00173490686362013
0.00180424338891764
0.00186747875617999
0.00192448798553305
0.00197527866173445
0.00202063016066219
0.00206098621627472
0.00209675669432757
0.00212831457269195
0.00215600407980667
0.00218014430455148
0.00220103125736695
0.00221893855027626
0.00223411824396497
0.00224680151560615
0.00225719976449205
0.00226550571710554
0.0022718947999648
0.00227652652287735
0.00227954577841302
0.00228108429108367
0.0022812616962094
0.00228018661558637
0.00227795776908558
0.00227466470944831
0.00227038853495324
0.0022652025653922
0.00225917288316892
0.00225235881418184
0.00224481330980963
0.00223658328096179
0.00222770986033895
0.00221822863521108
0.00220816992636033
0.00219755902887112
0.00218641645413761
0.00217475832255925
0.00216259818303192
0.00214994321779143
0.00213679012097822
0.00212313174962946
0.00210895381593451
0.00209423206568054
0.00207893277054895
0.00206300718679743
0.00204639104495495
0.0020289979496363
0.00201072030595208
0.00199140867697717
0.00197087887598512
0.00194886493560751
0.00192504871173792
0.00189893959078059
0.0018702621915694
0.00183903781939388
0.00180370424722499
0.00176233438745257
0.00171132926801906
0.00164005923358629
0.00158602968958812
0.00160079323463838
0.00163316961795868
0.00166415184343985
0.00168128693824098
0.00168665769278279
0.00168392559437499
0.00167911966071266
0.00167031225830782
0.00165765763731818
0.00163973014999514
0.00161440519225156
0.00157249994239972
0.00151494028440573
0.00144668592202195
0.00137263161731486
0.00129799354757526
0.00123303131439777
0.00119270393660619
0.00117919292433264
0.00119488327289125
0.0012530373125318
0.00136062711952881
0.0014636220606981
0.00138648651234288
0.00117364000417903
0.00092023319782867
0.000786225030850558
0.00110652798938902
0.00108060227022905
0.000919966282295875
0.000543939109558604
0.000299088227919692
0.000254371262401327
0.000330853243051177
0.000328199016389766
0.00027864287984777
0.000243117060958984
0.000224111984332308
0.000217707847605093
0.000224737842031836
0.000245580659715615
0.000281997604285567
0.000334581510265306
0.000402902619390133
0.000485339826520462
0.00058097832786025
0.000687204640788426
0.000799665003364407
0.000914216129187889
0.00102788892002794
0.00113509959841147
0.00123006706311633
0.00131445155129636
0.00140283676573627
0.00152538838203761
0.00171660055602674
0.00191230159532481
0.00206759295626713
0.00220038361818769
0.00231673270748874
0.00242012537013689
0.00251349416456854
0.00259801805764405
0.00267393713143823
0.00274164718444463
0.00280208739633646
0.00285585667683478
0.00290350678559645
0.00294553947482328
0.00298241785495881
0.00301457083981404
0.00304239589154658
0.0030662599770045
0.00308650075560041
0.00310342757828425
0.00311732302902737
0.00312844449544927
0.00313702606305882
0.00314328040845476
0.00314740059961625
0.00314956203539426
0.00314992392387306
0.00314863075559154
0.00314581376745423
0.00314159194108174
0.00313607297049754
0.00312935417328863
0.003121523221328
0.0031126587809381
0.00310283103279701
0.00309210213349311
0.00308052659880926
0.00306815165107054
0.00305501760384671
0.00304115831477162
0.00302660183247016
0.00301137102885685
0.00299548362646656
0.00297894252219732
0.00296174233179516
0.00294387241138192
0.00292531277468785
0.00290603053688013
0.00288597991662441
0.00286509596984105
0.00284329282764768
0.00282045580344402
0.00279644045871979
0.00277104920791747
0.00274403479815173
0.00271504732003168
0.00268365852274568
0.00264922783840753
0.00261126324326995
0.00256952565716214
0.0025222153766261
0.00246675622283172
0.00239866892222821
0.00230388667732652
0.0022310881705129
0.00224901554785955
0.00229538951364611
0.00234103465781451
0.00237019036450388
0.00238427073228809
0.00238813202903404
0.00238896938936434
0.00238421801489169
0.00237339050390019
0.00235456060534291
0.00232451931960685
0.00227156243979558
0.00219677076188134
0.00210720728629941
0.00200982898564337
0.0019119569659566
0.00182771950072309
0.0017775826775372
0.00176481573561931
0.00179207564763304
0.00187576183702062
0.00202436563098559
0.00216392221765155
0.00206208347628995
0.00176032998950478
0.00139305006630386
0.00117992902303346
0.00152522049882752
0.00147448689196227
0.00127648952895405
0.000771193683243693
0.000414225315785986
0.000347083137361608
0.000463107233444375
0.000512370435168957
0.000460050117684407
0.000409815262724309
0.000378999031267299
0.000364334520275095
0.000368402961701991
0.000392816567589156
0.00044000812162931
0.00050977576930952
0.000600110032524875
0.000707788251964943
0.000830896140404734
0.000965541642814102
0.00110607486475079
0.0012476782609348
0.00138711725768425
0.0015182309910989
0.00163557864528459
0.00174338349672014
0.00186082996533561
0.0020238663225909
0.00226780942357319
0.00251428169048595
0.00271136271957663
0.00288062900070159
0.00302920138308977
0.00316130849667094
0.00328033230919463
0.00338764933735547
0.00348390190832374
0.00356984310691452
0.00364657172187595
0.00371485075474354
0.00377538020536648
0.00382879710534448
0.00387568976299183
0.0039166029566912
0.00395204130002653
0.00398247045534202
0.00400831864742322
0.004029978004093
0.00404780654421641
0.00406213023917023
0.00407324545115723
0.00408142136128935
0.00408690229924155
0.00408991018866922
0.00409064644917064
0.00408929388745285
0.0040860185205346
0.00408097085245248
0.00407428710920672
0.00406609039584209
0.0040564916266322
0.0040455903313866
0.0040334753239715
0.00402022530656649
0.00400590940055259
0.00399058763528065
0.00397431145666044
0.00395712455188138
0.0039390640458096
0.00392016000886726
0.00390042788055315
0.00387986932096805
0.00385847744022703
0.00383623792500333
0.00381312472410222
0.00378909587179643
0.0037640927907641
0.00373803343429107
0.00371080912026978
0.00368227536403491
0.0036522486219047
0.00362048066614754
0.0035866573097197
0.00355034083026536
0.00351098597679263
0.00346779690627773
0.00342004814604103
0.00336717808147257
0.0033071480183542
0.00323676750866822
0.00315063423736051
0.00303144575019795
0.00293830909325285
0.00295739074476922
0.00301843291454591
0.00308090224159412
0.00312499421141405
0.00315091921809391
0.00316455006754539
0.00317404982520651
0.0031762153626272
0.00316967839247891
0.00315189477897103
0.00311841578505984
0.00305515243556138
0.00296326846229411
0.00285208065567397
0.00273088218241793
0.00260939551356519
0.00250589000124111
0.00244653512534994
0.00243593865036605
0.00247686469628321
0.00258817716777027
0.00277919782357084
0.00295504377824188
0.00282988950971016
0.00243646166209031
0.00194870088664299
0.00164654361431609
0.0020043695466681
0.00192123777278681
0.0016833152153172
0.00105336655258168
0.000544215801092797
0.00043731673768214
0.000576898999714939
0.000707347850382408
0.000674161694504975
0.000613328997317371
0.000570123786385352
0.000544941140747352
0.000543182742975666
0.000568836880190548
0.000625400908945376
0.000711646099001559
0.000823574347874359
0.000956158035885791
0.00110633543022599
0.0012689044897273
0.00143703800251386
0.0016054230141832
0.00177069835867904
0.00192647906725789
0.00206814709213141
0.00220263830832037
0.00235325167657671
0.00256052096730081
0.00285865564244469
0.00315658778680386
0.003396889350966
0.00360422785947258
0.00378663316869323
0.00394896464655514
0.00409499606969074
0.00422639763849818
0.0043442197356587
0.00444954145197882
0.00454362399836289
0.00462740026326538
0.00470172273394937
0.00476736816599126
0.00482505436305905
0.00487544608145351
0.00491915896503924
0.00495676101472382
0.0049887744206867
0.00501567725718863
0.00503790592600348
0.00505585772776417
0.00506989385991593
0.0050803423966011
0.00508750116713454
0.00509164071583135
0.00509300664333287
0.00509182192772109
0.00508828910994597
0.00508259185832341
0.00507489647677736
0.00506535331320817
0.00505409789551553
0.00504125190935161
0.00502692402475335
0.00501121065978683
0.004994196688377
0.00497595609445181
0.00495655262386605
0.00493604126327448
0.00491446937677952
0.00489186866552815
0.00486825323467437
0.00484362556027565
0.0048179775472364
0.00479129120922955
0.00476353426740889
0.00473465546264791
0.00470458301395905
0.00467321724548071
0.00464042594727911
0.00460603393335197
0.00456981715999322
0.00453147521439664
0.00449062456612113
0.00444673735709376
0.00439914705176423
0.00434689953962259
0.00428902762224587
0.00422461408483884
0.00415136623905915
0.00406552671208134
0.00396074215755721
0.0038167843684957
0.00370215776849473
0.00372010071098991
0.00379567667994957
0.00387658630979075
0.00393817107879458
0.00397887426444209
0.0040052951617688
0.00402633497215105
0.00403814458072282
0.00403827709935227
0.00402343697632416
0.00398781204536888
0.00391510638296309
0.00380651283223541
0.00367366758521692
0.00352840835031071
0.00338311770684088
0.00326040368420638
0.00319219002354098
0.00318462646914632
0.00324047531747742
0.00338043237317987
0.00361394633772049
0.00382463867678464
0.00367728430718279
0.00319224719396916
0.00258043058325536
0.00218167224777806
0.00254203561121089
0.00241998121200671
0.0021373963708777
0.00139596171927158
0.00069569365261557
0.000529809282689083
0.000668092120542325
0.000892720009144343
0.0009087177508756
0.000845950378823851
0.000791760268302406
0.000755177638069883
0.000745481553424431
0.000770240866572909
0.000834605122032232
0.000936320170749096
0.00106914843187107
0.00122610143861428
0.00140283589177795
0.00159283847846338
0.00178823244231051
0.00198336399932712
0.00217488917377716
0.00235652098316059
0.00252478300299641
0.00268925173987447
0.00287670457523283
0.00313105744132492
0.00348403797315631
0.00383359300949526
0.00411807604160034
0.00436464045697719
0.00458208861166259
0.00477580697829567
0.00494993587377157
0.00510649097550003
0.00524691968401082
0.00537259966187799
0.00548495785393956
0.00558510000619964
0.00567403335635854
0.00575267683573141
0.00582188009209096
0.00588243010801498
0.00593505567227919
0.0059804291201404
0.00601916848477958
0.00605183956060869
0.00607895880916829
0.00610099645312223
0.00611838004281757
0.00613149799676335
0.00614070304023511
0.00614631568164479
0.00614862700063434
0.00614790140384014
0.00614437917209971
0.00613827831726715
0.00612979636421433
0.00611911201085318
0.00610638647326722
0.00609176463927789
0.00607537606262665
0.00605733590637552
0.00603774585808633
0.00601669496587243
0.00599426045462844
0.00597051001527367
0.00594549801035428
0.00591925475758615
0.00589179725812757
0.00586312925083823
0.00583324178049811
0.00580211334155283
0.0057697054624143
0.00573595760132931
0.00570078467902346
0.0056640692284582
0.00562565527133819
0.0055853365982542
0.00554284809230769
0.00549783654362462
0.00544984804941227
0.00539826380790289
0.00534229416645071
0.00528082608385587
0.00521264854646485
0.00513647463587763
0.00504974050957181
0.0049481739060956
0.00482445998548977
0.00465581509106758
0.00451897762288325
0.00453345991862322
0.00462279662865578
0.00472320511847666
0.0048044400961142
0.00486260287505542
0.0049046408826375
0.00493992912399625
0.004963948173929
0.00497301175170566
0.00496293403115739
0.00492644757603606
0.0048452564400434
0.00472055081207855
0.00456628524471861
0.00439698408886311
0.00422790005624077
0.00408610185366338
0.00400918776200396
0.00400498851940026
0.00407620866236395
0.00424483859465412
0.00451987015859196
0.0047632124076972
0.0045945884883958
0.00401995066646434
0.00328310599971026
0.00278209058529861
0.00313679604392682
0.00297019275215965
0.00263691805432076
0.00180164835092095
0.000876281347822306
0.00062865376242616
0.000743364638944241
0.00105208097016484
0.00115053602233306
0.00110014718846704
0.00103876022735068
0.000991515977120569
0.000972759031575296
0.000994839507438936
0.00106535491165156
0.00118129771124431
0.00133411022751994
0.00151473448989936
0.00171743172488165
0.00193439752450566
0.00215683041563883
0.00237886687026179
0.00259731719550187
0.00280625573042023
0.00300351457188051
0.00320108223412455
0.00342851359216274
0.00373198662386957
0.00413981083461418
0.00454070784334781
0.00486989540780397
0.005156422026958
0.00540974493998178
0.0056356878755581
0.00583874103558542
0.00602128882507265
0.00618515572245501
0.00633199463580213
0.00646340063189851
0.00658065271804398
0.00668491319013092
0.0067772436407902
0.00685862599597568
0.00692996988129046
0.00699211761500478
0.00704584624807379
0.00709187004282178
0.00713084291985364
0.00716336183105609
0.00718997038235433
0.00721116297129974
0.00722738888843868
0.00723905631957784
0.00724653633475387
0.00725016612235347
0.00725025217736056
0.00724707320649801
0.00724088227770227
0.00723190887151855
0.00722036078837942
0.00720642570307685
0.00719027249797843
0.00717205243586529
0.00715190030935421
0.0071299355904938
0.00710626345435332
0.0070809757813725
0.00705415207939919
0.0070258466740173
0.0069960948023039
0.00696491697820779
0.00693231868612315
0.00689829050589828
0.00686280771246367
0.00682582586561001
0.00678727536621398
0.00674705803839373
0.00670503881649141
0.00666103816778885
0.00661481909986999
0.00656607563115224
0.00651440205405659
0.00645927437370245
0.00639998351817754
0.00633561718813233
0.00626490507600329
0.00618639514058539
0.00609843008569634
0.0059981609826374
0.0058808537540726
0.00573824033481214
0.00554537779132996
0.00538603356606571
0.00539486382179579
0.00549670240244388
0.00561712401777229
0.00571973889125462
0.00579774625223674
0.00585799803998716
0.00591004516912635
0.00594865151329704
0.00596876180503548
0.00596516430843789
0.00592907650261278
0.00584042950395881
0.00570039994856995
0.00552520653721285
0.00533213758705898
0.00513946829693345
0.00497876995649195
0.00489311402751237
0.00489208421848954
0.00497833597283922
0.00517476268134675
0.00548954171225068
0.00576292115195778
0.00557390360677402
0.00491306772224763
0.00405247644885477
0.00344532588077776
0.0037875355042974
0.00357150696101474
0.00318118573506022
0.00227016636373284
0.00109496348293274
0.000737980445599529
0.00081161759182407
0.00117606000836127
0.00138542216532027
0.00136806791805469
0.00130619883173849
0.00125088224481339
0.00122313194433672
0.00124124614383094
0.00131626407492855
0.00144499004774231
0.00161666014727945
0.0018201003775635
0.00204808725647433
0.0022915576540032
0.00254089874990215
0.00279014368144111
0.00303637410521965
0.0032742171878234
0.00350285232898074
0.00373634922963928
0.00400633115439524
0.0043602355849932
0.0048223457173044
0.00527389657847223
0.00564788636511133
0.0059747070761601
0.00626437051991122
0.00652306067422653
0.00675559937019893
0.00696474388850375
0.00715267127237743
0.00732128955480971
0.00747236257173588
0.00760734061381348
0.00772753937335558
0.00783416162699239
0.00792832011237964
0.00801104570156665
0.00808329291929058
0.00814594232326797
0.00819980332443794
0.00824561703223876
0.00828406009617182
0.00831574885610672
0.00834124404656827
0.00836105545028393
0.00837564645982406
0.0083854385690431
0.00839081504492326
0.00839212453916936
0.0083896843434012
0.00838378282838774
0.00837468175669242
0.00836261842822405
0.00834780744113255
0.00833044220831355
0.00831069632413979
0.00828872495313462
0.00826466623018434
0.00823864246437022
0.00821076039686685
0.00818110309908095
0.00814973045693921
0.00811668410792159
0.00808198873920515
0.00804565209464786
0.00800766474501374
0.00796799918037939
0.00792660539637064
0.0078834051706805
0.00783828771553431
0.00779110090472666
0.00774164230371107
0.00768964492379172
0.0076347628731298
0.00757653913717077
0.00751438115393528
0.00744749170230259
0.00737483847110872
0.00729499786243852
0.00720628367862271
0.00710667760912654
0.00699303754378954
0.00686022009518549
0.00669903103023881
0.00648276543655988
0.00630102851349814
0.00630224981689042
0.00641498336415927
0.00655541964121346
0.00668069771552512
0.00678059898591932
0.00686139421500879
0.0069324827510672
0.00698784119961525
0.00702094132592627
0.00702541965913391
0.00699095051403078
0.00689593210694534
0.00674153386226857
0.00654614097092288
0.00632982024803468
0.00611395628779764
0.00593457874289499
0.00583991608138211
0.0058413191754948
0.00594149526783948
0.00616404686296074
0.00651628345675116
0.0068169609535326
0.00660847931629577
0.00586586551913495
0.00488473477083339
0.00416928107007733
0.00449325721619567