/*--------------------------------*- C++ -*----------------------------------*\
  =========                 |
  \\      /  F ield         | OpenFOAM: The Open Source CFD Toolbox
   \\    /   O peration     | Website:  https://openfoam.org
    \\  /    A nd           | Version:  7
     \\/     M anipulation  |
\*---------------------------------------------------------------------------*/
FoamFile
{
    version     2.0;
    format      ascii;
    class       volScalarField;
    location    "3000";
    object      omega;
}
// * * * * * * * * * * * * * * * * * * * * * * * * * * * * * * * * * * * * * //

dimensions      [0 0 -1 0 0 0 0];

internalField   nonuniform List<scalar> 
15600
(
1974.60613735576
1972.648325243
1984.42791022013
2055.78059759582
2222.67690004102
2356.686868098
2378.42128442444
2300.00018532342
2153.97031116953
1966.45861756929
1762.78479607635
1583.64547894744
1435.67966376577
1312.2349065017
1208.29531934702
1120.03744959636
1041.43040276847
963.351277377799
885.918292649371
810.58135114486
738.629427726828
671.777660481123
614.580438156229
568.667823075621
533.493089366932
508.868650769501
494.93483283514
492.061840314983
493.651539705996
493.651534338166
493.651534338173
493.651534338186
493.651534338214
493.651534338152
493.651534338164
493.651534338193
493.651534338173
493.651534338179
493.651534338187
493.651534338166
493.651534338199
493.651534338138
493.651534338171
493.651534338152
493.651534338165
493.651534338172
493.651534338187
493.651534338193
493.6515343382
493.651534338166
493.651534338172
493.651534338165
493.6515343382
493.651534338165
493.651534338146
493.651534338186
493.65153433818
493.651534338194
493.651534338178
493.651534338193
493.6515343382
493.651534338185
493.651534338193
493.651534338201
493.65153433813
493.651534338152
493.651534338177
493.651534338139
493.651534338172
493.65153433818
493.651534338191
493.651534338182
493.65153433818
493.651534338178
493.651534338194
493.651534338178
493.651534338152
493.651534338152
493.651534338159
493.651534338193
493.651534338166
493.651534338166
493.651534338171
493.651534338213
493.651534338157
493.651534338194
493.65153433817
493.651534338157
493.651534338187
493.651534338165
493.651534338165
493.651539706002
492.061840314982
494.934832835202
508.868650769232
533.493089366357
568.667823075228
614.580438156834
671.777660481449
738.629427726959
810.581351143299
885.918292648864
963.351277377646
1041.43040276902
1120.03744959597
1208.2953193011
1312.23490651725
1435.67966381516
1583.6454790092
1762.78479592733
1966.45861764716
2153.97031128258
2300.00018510395
2378.42128451691
2356.68686814436
2222.67690004416
2055.78059756207
1984.42791022399
1972.64832524326
1974.60613735531
413.504651643351
414.575998110472
444.231897134212
451.944942962293
457.477597626156
465.682340650443
468.768553922493
454.219201033479
426.380405140407
389.738074630194
349.730382319606
314.48679579878
285.462251462452
261.435023443343
241.381479958608
224.426160845856
209.166259888512
193.916732665803
178.634672112454
163.529589765877
148.921281044149
135.466019517662
123.968331609127
114.600208348831
107.429795590991
102.575042474258
100.702921627333
104.014857718644
105.522780516063
103.870748177319
102.671028978506
101.879508358174
101.274964675991
100.777783539162
100.351495416271
99.9802532489819
99.7038876369341
99.4923414773039
99.2987648328145
99.1130344451761
98.9355822974826
98.766498559273
98.6058535461525
98.4536509764731
98.3098309544426
98.1742798524717
98.0468404212009
97.9273265936882
97.815530953148
97.7112343810419
97.6142114055117
97.5242320548866
97.4410672634263
97.3644870394407
97.2942616301967
97.2301645034177
97.1719691566974
97.1194497535955
97.0723821494732
97.0305438794979
96.993714507608
96.9616753219312
96.9342097128137
96.9111035515715
96.8921459264202
96.8771294792276
96.8658492649966
96.8581040946809
96.8537008431082
96.8524534683037
96.8541781403186
96.8587100503302
96.8658624539423
96.8754273480371
96.8871878976383
96.900960265485
96.9165812990266
96.9339872006609
96.9530725361241
96.9738454732799
96.9961857180239
97.0203270863397
97.0461766622083
97.0744446850836
97.1049808856114
97.139347361252
97.2150062332761
97.3352761682878
97.480290501169
97.6660847197938
97.9573431418606
98.4345997113204
98.2656698967074
97.7100418959408
100.182357406048
104.781390116865
111.526698613855
120.325491201748
131.304240473323
144.074821689784
157.932661217157
172.515270606351
187.663594486584
203.143521200758
219.20948666065
237.295633561985
258.545478658365
283.741307011579
313.808595142486
349.754599436843
390.200616867796
428.444501404438
459.354770998995
477.135436997289
477.092867230121
462.410032472759
462.963846745479
467.914101311878
460.000561292012
427.331229701666
172.243686173842
166.949299389281
171.87933453962
175.983693767322
166.955541161407
166.148088071704
163.84199812247
159.575163117488
150.716155896293
138.147740146052
124.298359137888
111.958231557023
101.688714155615
93.1855694121806
86.0776870648967
80.0386081570952
74.5652941007769
69.0514293166374
63.5053128674348
58.0643285907331
52.9040290116986
48.2428781199221
44.3721635732347
41.3953521835519
39.31713106791
38.1640819528285
37.9495431174901
38.2574236102877
38.2041700030483
37.9206670690726
37.8399325042372
37.8391729493436
37.8480800259703
37.8654170973806
37.882686961661
37.8855634730601
37.8123554324857
37.762505469448
37.7195205942732
37.6806043005162
37.6448054244235
37.6113652519412
37.5797509503105
37.5495705553772
37.5205314788356
37.492414857893
37.4650569664333
37.4383388582194
37.4121760016545
37.386512358185
37.3613142041465
37.3365643650531
37.3122594796897
37.2884045247805
37.2650102961697
37.2420922010925
37.2196661527599
37.1977474548387
37.1763500972643
37.1554857090475
37.1351628840525
37.1153863629409
37.0961567586799
37.0774704489348
37.0593197151797
37.0416927044082
37.0245725555637
37.0079379595973
36.9917657118031
36.9760300893217
36.9606972982355
36.9457322472388
36.93107566885
36.9166525983059
36.9024204680311
36.8883588213534
36.874405704587
36.8605444001491
36.8467360083389
36.8329923632267
36.8192444025605
36.8056077444268
36.792006069411
36.7788040579831
36.7658602392362
36.7541005753942
36.7267960651701
36.6759011129964
36.6169268562092
36.5343971973947
36.4834561849866
36.410929404343
36.2825251523181
36.4222593105102
37.3001065283116
38.8283012455041
41.127808159968
44.1222689555123
47.8394949513128
52.1309844542661
56.8253779459562
61.7844376235436
66.9743016733659
72.336590097597
78.0640018484449
84.5106021872428
92.0279535788511
100.897570560906
111.406654448384
123.698322254365
137.089824906708
149.81380177082
160.080946742319
165.337417801204
164.354397898056
160.847482304081
164.306620371419
173.04773902972
182.375564011608
180.740090217049
96.9637987638352
92.4350756499161
96.5992965053187
107.773923698744
99.0197338564057
82.146262431902
75.6967038995731
73.9918635253242
70.6305520117738
65.1414710025892
58.9906323553011
53.4723144132206
48.8884282166516
45.1361845125856
41.9851561770617
39.2100689439657
36.5552461920984
33.8329507238426
31.1059145237803
28.4945896013809
26.1242792120923
24.0994001622362
22.5029751960904
21.3632052810775
20.6911266724736
20.4886718481399
20.6692115972984
20.910018447931
20.8423148191662
20.7396509590768
20.7633729936575
20.821690970693
20.8858357954379
20.9514015154796
21.0091446634305
21.0385735015367
21.0479510682907
21.0642329658511
21.0806615594292
21.0963472400455
21.1108385624202
21.1238393304177
21.1351826147791
21.1447807444802
21.152598461383
21.1586374128727
21.1629248975751
21.1655077641028
21.1664465986682
21.1658125148091
21.1636837941482
21.1601429941401
21.1552754966049
21.1491666400747
21.1419006750147
21.1335601207507
21.124223603181
21.1139655330415
21.102855873337
21.0909596676096
21.0783367694447
21.0650415002624
21.0511226253567
21.0366233966
21.0215817025504
21.0060301259323
20.9899955195589
20.9734990012444
20.9565569686838
20.9391807690724
20.9213690019181
20.9031081431743
20.884384539591
20.8652070876905
20.845599643764
20.825565081564
20.8050853852481
20.7841635605212
20.7627932276808
20.7409940360898
20.7187459312199
20.6961264003237
20.6731215982985
20.6499550499238
20.6266010215393
20.6036577414579
20.5743248862682
20.5276766952096
20.4749751946304
20.4115288562208
20.3532625193735
20.2960722239869
20.2014716815913
20.2098259969656
20.5937718291374
21.321273209991
22.4403158307051
23.9014212755788
25.7003907020353
27.7608974692639
30.0178094843502
32.4027809183058
34.8981281283435
37.4822803685426
40.2664668240805
43.3736846814795
46.9338439432307
51.0635096054722
55.870779644764
61.3395214787817
67.0686253400286
72.4190001808753
76.6593362773837
78.6164127690224
77.8861457518824
76.6140465006989
80.0626202999363
86.7329998461735
96.6857550194309
100.55984621212
63.4009885377329
60.6049373693484
64.1100198743702
78.7157628122776
77.9815751444351
53.5105801475975
42.354008900233
40.507852370219
38.8631090113815
36.0715038759503
32.9705885167303
30.2171261178052
27.964613371785
26.146334222932
24.5823610714601
23.116949795733
21.6384289190487
20.1248856375459
18.6383338743021
17.2566251734931
16.0510473296767
15.0683119646846
14.330571834185
13.8525192405645
13.651275169048
13.7224039457204
13.9858259774976
14.2305250725212
14.1915041071028
14.1030732772762
14.1166199687374
14.1596594029305
14.2120012550452
14.2663069298381
14.313589655551
14.3464874901838
14.372895328431
14.4012588135624
14.4283140820887
14.4536694743786
14.4770801042078
14.4984137513338
14.5176169684895
14.5346847120388
14.549642634402
14.5625375004955
14.5734301098397
14.5823915785014
14.5894998174699
14.5948376202723
14.5984906082736
14.6005455517767
14.601089444153
14.600207743272
14.5979838546124
14.594498663051
14.589829205607
14.5840485979472
14.5772259278766
14.569425971767
14.5607090523468
14.5511308665175
14.5407425249539
14.5295906001415
14.5177172177075
14.5051601106538
14.4919523810949
14.4781220590393
14.4636920358748
14.4486795852303
14.4330863690653
14.4169103907885
14.4001840368629
14.3829495200018
14.3652313953725
14.3470472984828
14.3284049916106
14.3093263440584
14.2898328439379
14.269966594881
14.2497552579784
14.2292937867924
14.208642438155
14.1880220731898
14.1675428172061
14.1477320329873
14.1259427209958
14.0953963373903
14.0622092838743
14.0260817069991
13.994348878463
13.9794231083253
13.922881544912
13.8683085140632
14.0545637993087
14.4741390330543
15.1421563604938
16.0237543000289
17.1052628824568
18.3379234211931
19.6881066428354
21.1160817015343
22.6092596247486
24.1579218336133
25.8330380286897
27.6921960741583
29.7912708787509
32.184319882081
34.917389465617
37.9463309119548
41.0109591554182
43.810681425424
45.9964846362606
46.9678845003284
46.5450275310677
45.9674098716315
48.4793641627187
53.2109725534909
60.4501554867798
64.4545626948136
45.5045849470325
43.9158852569136
46.4274505578751
60.7185771492697
66.9136187840916
43.9087497502296
28.5121472357567
25.5388742852355
24.239685866526
22.5124894026041
20.7340649645969
19.2459406389784
18.0793348629282
17.1596813433846
16.338299698885
15.5115398083503
14.6383048164509
13.7425413781065
12.8697971354379
12.0707402733961
11.391046852654
10.8574522685531
10.4788529242297
10.2684505996263
10.242050102069
10.3907410910106
10.6460036759441
10.851069909703
10.8131559920903
10.7299165641716
10.732093274815
10.7603453505218
10.7984808834506
10.8392811344869
10.8757260135314
10.9055338264979
10.9328170341857
10.9605252946442
10.9868295746963
11.0114746158494
11.0342852442361
11.0551755937316
11.0741167917502
11.0911159821986
11.1062030152706
11.1194234447368
11.1308332404836
11.1404959578993
11.1484801120923
11.1548576892612
11.1597025818653
11.1630893584414
11.1650924931463
11.1657850878978
11.1652385137214
11.1635219817561
11.1607016121205
11.1568404180559
11.1519982227512
11.146231443683
11.1395929914289
11.1321321666922
11.1238947058657
11.1149228020395
11.1052551267272
11.0949268479707
11.0839694682265
11.0724099987712
11.0602701311703
11.0475652928369
11.034298293344
11.0204917187882
11.0062006555275
10.9914613309997
10.9763010565615
10.960745987931
10.9448186372585
10.9285534171422
10.9119898544524
10.8951870006051
10.8782043421588
10.8611558582239
10.844152811505
10.8274320929142
10.8111970338464
10.7959617404641
10.7806803537517
10.7616746124711
10.7423383129051
10.723978998278
10.711576621351
10.7227090123416
10.6948962213782
10.62495916648
10.7174021630614
10.9845906287918
11.4302167215725
12.0280708703455
12.7620053692313
13.5967633904615
14.5114528092223
15.4805958009212
16.4945960890844
17.5489408078216
18.6936224824398
19.9622681799112
21.3817679802657
22.9795783023945
24.7769606222063
26.7284545583222
28.6495564716628
30.3683536555386
31.6931302820721
32.27702988348
32.0205966397687
31.7099726595113
33.4965205113791
36.992949445031
42.2128135077064
45.5180933546294
34.772964752863
33.9034682163574
35.6429959450477
47.9830963769763
57.8878332258275
40.624373998875
22.6084862020293
18.2546693072525
16.8899822560529
15.605766212163
14.4282990877652
13.5370696011381
12.8922918361902
12.405860541649
11.9505007963939
11.4531252272323
10.9019180603764
10.3297196169772
9.77157469595003
9.2650980035139
8.84399221885759
8.52665649167733
8.31842703899548
8.23075882227092
8.27512368022749
8.43892450258106
8.66237404196412
8.82191449763911
8.78064335785117
8.70539684808754
8.70166800632279
8.72036093390877
8.74835235580497
8.77938948951261
8.80814417589534
8.8339459933507
8.85867301447299
8.88331334226232
8.90671628034518
8.92867026825408
8.94902884891496
8.96772056036613
8.9847201023755
9.00003232059587
9.01368129427957
9.02570458359298
9.03614881105161
9.04506719074555
9.05251730417836
9.05855976329304
9.06325686883034
9.06667158201444
9.06886681793241
9.06990442936355
9.06984490438454
9.06874696339861
9.06666685899371
9.06365837001771
9.0597727273072
9.05505843863526
9.04956120945927
9.04332387767498
9.03638645259485
9.02878610772827
9.02055714041953
9.01173095027314
9.00233590532714
8.99239610247634
8.98193006110851
8.97095019962315
8.95947061216075
8.94753609147434
8.93519304279094
8.92247510375027
8.90941155578094
8.89603322095191
8.88237101277895
8.86846687587272
8.85437111401282
8.84015330952124
8.82589237579462
8.81171495373652
8.7977635917132
8.78428703582118
8.77154548985712
8.76004786092763
8.74948587175816
8.73795010143682
8.72757068049688
8.72018256185368
8.71994374249694
8.74538913404228
8.73739883666171
8.67005003376632
8.71326573275222
8.89298738990037
9.21016212201565
9.64443080794388
10.1796131178208
10.7883555747082
11.4560414568738
12.1652450433605
12.9084567700878
13.6838471723301
14.5289353015776
15.466469441588
16.5103482687033
17.6752109105609
18.9708858525246
20.3560689192873
21.6916888554546
22.8654750463364
23.7603696143773
24.1567244449149
23.991686977629
23.8043889653899
25.0987358451024
27.7738690029226
31.7118486020098
34.3903158463126
27.7578804603754
27.3102342210176
28.5582224238714
38.5797747440775
50.6510785651373
39.1112282117713
20.2775297207903
14.4488589341314
12.8660459044706
11.7840746119964
10.9027076736439
10.3046995220842
9.91652212751113
9.64297292727089
9.37272993935686
9.05027779755308
8.67572757131415
8.28141974742505
7.89621517556518
7.55029589110675
7.27010207790761
7.06921874090963
6.95134994357767
6.92558613167119
6.99889285308717
7.15622933637858
7.34505040724231
7.46626526829628
7.42365860340259
7.35758020184493
7.35139783194865
7.36430812307194
7.38559803082347
7.41001201272041
7.43358019920386
7.45591072439939
7.47775924896664
7.49933230363425
7.5198385597474
7.53908623742803
7.55694567304983
7.57335229959821
7.58828132909128
7.60173466026043
7.61373146472888
7.62430312918788
7.63348933063854
7.64133573991423
7.64789201673061
7.65321054532216
7.65734522639395
7.66035056795432
7.66228102748596
7.66319017021049
7.66313039855063
7.66215258540151
7.66030553089668
7.65763595736408
7.65418844790908
7.65000530734647
7.64512650211156
7.63958961992952
7.63342989997868
7.6266802000262
7.61937090398408
7.61152986837857
7.60318229274261
7.59434896946588
7.58504479808992
7.57528508154449
7.56510189703686
7.55453813206345
7.54363316649173
7.53241904881362
7.5209261132218
7.50918761084549
7.49723920955694
7.48512715937722
7.47290796137076
7.46065722891888
7.44846530398314
7.4364660096502
7.42482014047466
7.41378222490328
7.40364526744245
7.39491115088817
7.38764950460815
7.38096861752908
7.37639078412099
7.37586351132285
7.38318409570284
7.41615504598403
7.42154646669401
7.36276454196051
7.37875182550178
7.50354390397284
7.73872524414554
8.06830468396893
8.47701711257187
8.94272296248082
9.45434151076511
9.99938590438201
10.5718866648623
11.1715194617736
11.8276034398521
12.5570440052683
13.367338290487
14.2663643321656
15.2580881331585
16.3060730795647
17.3011701241114
18.163266052303
18.8150034825311
19.1075284875767
18.9971888887044
18.8748366506956
19.8393582636059
21.9331149249046
25.0176353739909
27.2275629259305
22.8633299363246
22.6681755569549
23.6258197919861
31.4804206350282
44.617065305142
38.2366257649952
19.8043730014825
12.4089141168034
10.4905864594851
9.49164473599277
8.7673549396917
8.32019749741656
8.06233263299056
7.89643687655476
7.72348440578385
7.49861184441788
7.22672419504842
6.93737482010158
6.6552341277645
6.40537824616227
6.20910278613925
6.07672742586821
6.01081378452854
6.01802536957834
6.10156045778082
6.24514252736106
6.40274156345941
6.49455048094066
6.45309836649061
6.39616157494398
6.38951263235258
6.39911105134713
6.41612217154552
6.43617891323047
6.45622948102128
6.47586298094681
6.49525223576633
6.51427710896135
6.53235544860529
6.54931021007509
6.5650254519142
6.57944287716234
6.59253959534626
6.60431692028394
6.61479199730009
6.62399318419024
6.63195645030208
6.6387231869825
6.64433834920057
6.64884924500941
6.65230442989165
6.65475288834118
6.6562434289103
6.65682397688062
6.65654133337197
6.6554408566742
6.65356603718003
6.65095849417967
6.64765793350405
6.64370204513097
6.63912646318744
6.63396474371405
6.6282483854294
6.62200677217436
6.61526703866408
6.60805399773754
6.60039000102142
6.59229252390526
6.58377575997471
6.57486560638889
6.56559903066721
6.5560128025079
6.54614170923385
6.53601653475917
6.52566798853829
6.51513043679986
6.50444213555138
6.49365161109699
6.48281871052159
6.47202214712639
6.46135862842019
6.45096531886897
6.44101291252561
6.43175698494582
6.42350789882942
6.41675741390654
6.41178059106387
6.40828982342782
6.4074993808249
6.4113050980694
6.42329427032504
6.45986425151688
6.47417428996173
6.42538837549575
6.42609608316889
6.51437996508029
6.69363720540829
6.95135413661126
7.27355737376168
7.6418429048707
8.04733267257826
8.48074711346429
8.93728801815801
9.41751177558601
9.9449624873794
10.5329730705644
11.1856856973404
11.9071994281306
12.6982708811088
13.5269519428071
14.3052027177972
14.972338764237
15.4739455966629
15.7036360237379
15.6285129198371
15.5433739054975
16.2798990857979
17.9472193590089
20.4262448068837
22.2845172879704
19.2746006078926
19.2341442749015
20.0241170011851
26.0545135211035
39.3052999979967
37.2564850785465
20.4092536931648
11.3998514229688
9.02001942575246
8.02450835134495
7.38302306826537
7.01441796471205
6.82348982982257
6.71300688703033
6.59327523360127
6.42603730239769
6.21775123227255
5.9947591534748
5.7785586831353
5.59036333957843
5.44759386077056
5.35820159891043
5.32380204581215
5.34886266987209
5.43370542858742
5.56177473000386
5.69301543880585
5.76307242975292
5.72459001201744
5.67629925190861
5.67036893057382
5.67829066556744
5.69269518177839
5.70995818024506
5.72765046155862
5.74529646881931
5.76276489612362
5.77980248885939
5.79595944282436
5.81107364852746
5.82504262746091
5.83781558878361
5.84937377415877
5.8597205739248
5.86887393522261
5.87686205232353
5.88372000439093
5.88948764907205
5.89420788026264
5.89792547176107
5.90068606376853
5.90253542629271
5.90351891516385
5.90368087857491
5.90306444957293
5.90171128527239
5.89966123780601
5.89695235578443
5.89362086608569
5.88970110987896
5.88522552440642
5.88022463461998
5.87472706333145
5.8687594479421
5.86234627598477
5.85550980713641
5.84826991450777
5.84064191079
5.8326451279206
5.82431305222887
5.8156786170252
5.80677439126598
5.79763192038176
5.788280847985
5.7787518012207
5.76907946909678
5.759303361349
5.74947298723224
5.7396497339991
5.72991351312615
5.72036414572559
5.71113954821018
5.7024149208372
5.69444357214079
5.68754322931056
5.68219290351888
5.67878185535409
5.67738918569464
5.67906361976359
5.68558596977767
5.70037980005738
5.73821587019781
5.7583440952201
5.71923323418707
5.7115760282715
5.7746969196347
5.91402408516691
6.11991924897197
6.37983185927806
6.67819739287696
7.00762525377452
7.36100872026025
7.7344586328747
8.12905264946944
8.5640685473526
9.05042999508553
9.59045620544718
10.1860656719344
10.8362042436226
11.5128425957497
12.1436044759752
12.6805956657626
13.0834630763958
13.2726421657424
13.2213118363785
13.1584702749173
13.7317130028253
15.077959824278
17.1061094122083
18.6906613954508
16.5411812375174
16.5969130621819
17.2881422943646
21.8665220588275
34.5315885504716
35.9557100843866
21.5578957286585
11.0842767898605
8.10423720177772
7.04378583702818
6.43853425807
6.10773888222627
5.94924234084841
5.86644073619507
5.7764856842175
5.64505760846675
5.47847766547118
5.29994610280895
5.12839123606663
4.98196483810415
4.87508097450571
4.81390819894618
4.79924879249057
4.83371007014149
4.91554132362225
5.02858752386119
5.13822505487496
5.19250081201946
5.1581263978602
5.11785699986676
5.11338598477834
5.12074311887137
5.13371040268795
5.14927127600381
5.16543678929498
5.18168270244623
5.19772445732594
5.21326374692549
5.22794128223957
5.24161134456524
5.25418554531539
5.26562220293388
5.27590883169876
5.28505323556882
5.29307653481815
5.30000909492252
5.30588735633835
5.31075180433512
5.31464533001529
5.31761213425309
5.31969680419269
5.32094365693095
5.32139626473174
5.32109696430865
5.32008668701634
5.31840476409415
5.31608868082896
5.3131740849332
5.30969479591094
5.30568278129147
5.30116816203973
5.29617921532184
5.29074237157697
5.28488210357647
5.27862074615569
5.27197842516993
5.26497288412852
5.2576213427461
5.24995109097414
5.24199294053326
5.23377668025717
5.22533180688095
5.21668744017389
5.20787214688465
5.19891617166428
5.18985403637312
5.18072565677977
5.17158068469545
5.16248087935196
5.1535061027673
5.14475716023683
5.13637098011276
5.12852372595597
5.12146418747538
5.1155108891812
5.1111281646555
5.10876769165162
5.10873279059164
5.11197609782063
5.12014285733941
5.13650186157069
5.17418680187563
5.19795450497283
5.16755089965505
5.15568890691821
5.20106415267857
5.31093736689492
5.47809461671003
5.69142400287798
5.93761579368861
6.21035428491223
6.50405492762797
6.8155449362045
7.146204339599
7.51204949998638
7.92225809510862
8.37814551468058
8.88036104887511
9.42683533379413
9.99292456801729
10.5183237651439
10.964116026259
11.2989030737367
11.460637353382
11.425755992695
11.3763697289008
11.8288508198748
12.9281479809431
14.6088730553023
15.9729738194536
14.3966947928047
14.512278310087
15.140939862672
18.6047571555441
30.2148692218362
34.3112497350121
22.8559083498801
11.2965679783722
7.56997738369105
6.37573142612817
5.77208218702908
5.45332683021218
5.30657626783168
5.23542438541816
5.16180299694032
5.05341816266763
4.91543620588413
4.76807695601761
4.62808705940266
4.51112000615309
4.42920773579158
4.38714149473554
4.38502999170283
4.42397081201893
4.50079804034901
4.60019921180699
4.69241071502791
4.73541934100903
4.70579982344967
4.67293432588322
4.67040449481292
4.67797452217893
4.6903396887523
4.70497914700635
4.72023116787534
4.73554937987818
4.75058043803373
4.76502285135547
4.77858395573549
4.79113596300523
4.80260544492596
4.81296136696523
4.8221993629978
4.83033359025516
4.83739026492592
4.84340378793961
4.84841373897147
4.85246292219443
4.8555958253975
4.85785759144156
4.8592931859752
4.85994682265589
4.85986156518222
4.85907893347631
4.8576387746882
4.85557914166285
4.85293612379436
4.84974386333619
4.84603459410291
4.84183865961365
4.83718454401397
4.83209888417297
4.82660644991406
4.82073000438232
4.81449012575251
4.807905152658
4.80099308448819
4.79377735454718
4.78628537021
4.77854483554526
4.77058301404718
4.76242704699269
4.75410415088724
4.74564186134078
4.73706984684253
4.72842215310534
4.71973855058333
4.71106827814768
4.70247269726135
4.69403079174035
4.68584293325334
4.67804388755516
4.67080842001729
4.6643792881969
4.6590714427733
4.65533320909293
4.65364772581956
4.65445373947788
4.65864183061123
4.66771962713992
4.68479748365768
4.72146048071803
4.74731935765495
4.72446568319912
4.71095017792667
4.74364256425809
4.831271062817
4.9686802359667
5.14615467824136
5.35223503239164
5.58142833665933
5.82924697849698
6.0930895815405
6.37450013787309
6.68693803961177
7.03824915416803
7.42920339254183
7.85972454697456
8.3272076238272
8.80994565809687
9.25720994712198
9.63668365277418
9.92277678114835
10.0650910693674
10.0415407795366
9.99995350623391
10.3606061183817
11.266535318584
12.6729074426307
13.8548888286597
12.6745155238402
12.8266419247805
13.4101987749676
16.0409949752084
26.3248322091035
32.3717400767176
24.0026463954228
11.9498817056003
7.33120490625656
5.92699547991444
5.29438357645151
4.96914021697387
4.82033492438861
4.75057765423501
4.68485423082049
4.59145407231207
4.47368635446815
4.3489195745586
4.23196970476108
4.13640196131264
4.0723260317489
4.04344800720752
4.04929813014025
4.08978940540641
4.1608525731744
4.24827563668926
4.32657738073332
4.36170131556445
4.33715995480193
4.31113732454019
4.31087256712005
4.31921308455148
4.33158613582971
4.34587735965592
4.36067967450666
4.37544823689814
4.38980926251714
4.40347847333738
4.41621567607613
4.42791233995396
4.4385108987275
4.44799233920385
4.45636197735906
4.46364192844311
4.46986507275208
4.47507135195866
4.4793049094152
4.4826122139073
4.48504061527305
4.48663739021869
4.4874490040612
4.48752061971876
4.48689578360185
4.48561612646748
4.4837212763934
4.48124881724312
4.47823419469152
4.47471074019277
4.47070973906629
4.46626049225418
4.46139037455748
4.45612485475425
4.45048745434835
4.44449958180141
4.43818037864502
4.43154798287073
4.42462438599466
4.41743500233455
4.41000497979916
4.40235965189648
4.3945242239057
4.38652396236704
4.37838453010076
4.37013247250054
4.36179675917277
4.35341076214908
4.34501374192563
4.33665415249574
4.32839244319013
4.3203061638016
4.31249429687865
4.30508864970623
4.29826099972039
4.29224706488871
4.28735529095465
4.28401712427436
4.28272793268907
4.2840049101409
4.28869295556068
4.29816775419776
4.3153746613056
4.35048187880469
4.37732238796004
4.3608658583269
4.34726244343551
4.37083673486009
4.441373951964
4.55546380061327
4.70471456355232
4.87922371039268
5.07415918539764
5.28584418705593
5.51213772843841
5.75465828529343
6.02482195541924
6.32942217656776
6.66894882908002
7.04293570277063
7.44854512553818
7.86664212874729
8.2542676776621
8.58411010908476
8.83432460283829
8.96228764084026
8.94624219517124
8.90861615527539
9.19778225291772
9.94998712181228
11.1357361038165
12.1645750024143
11.2653580243302
11.4386833862111
11.9845610662555
14.0054120720734
22.8596645201898
30.2158305597242
24.8357075479678
12.9775529217089
7.3489033901138
5.64692309102582
4.95405274141677
4.60697469278308
4.44576513301786
4.37003614730583
4.30632056258217
4.22236450694849
4.11907628742904
4.01103342515767
3.91127237596363
3.83156914295744
3.7804536018302
3.76076333018381
3.77155933403281
3.81185412514089
3.87706016833984
3.95418949509758
4.02148612648183
4.05126047908339
4.03191747386996
4.01224640072269
4.01447036707762
4.02399078380705
4.03682730568596
4.0512020750425
4.0659134620905
4.08043631436458
4.09440440645978
4.10756065811963
4.11970872473075
4.13076042238046
4.14067491942666
4.14944644166664
4.15709132433946
4.16364099354477
4.16913630238067
4.17362397987713
4.17715390511627
4.17977731176092
4.18154544029843
4.18250866420288
4.18271584951017
4.18221395000788
4.18104778359081
4.17925982858059
4.17689017755168
4.1739765822539
4.17055443793287
4.16665681363775
4.16231454778667
4.15755635546099
4.15240891546641
4.14689689710979
4.1410428930918
4.13486723851525
4.12838867828168
4.12162817370972
4.11461031853319
4.10735887624938
4.09989724977015
4.09224891644521
4.08443738803872
4.07648639388037
4.06842028610679
4.06026465907774
4.05204770772519
4.0438020032375
4.03556605239537
4.02738727318355
4.01932485587245
4.01145454141542
4.00387327477703
3.99670936565336
3.99013052882163
3.98436478273474
3.979712101918
3.97658652511541
3.97548336404447
3.97696079229426
3.98182583081051
3.99133040025613
4.00824937016806
4.04148035673425
4.06850365682365
4.05737623238403
4.04462569253899
4.06164782945492
4.11888850038341
4.21440526920126
4.34104064679587
4.49022679639113
4.65768397785966
4.84034924458634
5.03645583547156
5.24763845209661
5.48365642488028
5.75045176345716
6.04839229595405
6.37683428402677
6.73290684556063
7.09975333961805
7.44082880230001
7.73268118709421
7.95577681998074
8.0726146245722
8.06103355207078
8.0246496542564
8.25706783371489
8.88548507980643
9.89132450616509
10.7898024305082
10.094623962044
10.2788483449034
10.7895565665963
12.3705695138639
19.8187889980259
27.9363631437129
25.2918136795756
14.2771886295115
7.61053584552054
5.50987331081218
4.72113642017208
4.33754656480731
4.15515411547578
4.0674680154875
4.00112802433325
3.92242356826662
3.82940315515916
3.73383830718412
3.64705606659559
3.57925544509591
3.53764149126553
3.52434664690292
3.53806273191439
3.57714041461598
3.63675472778936
3.70517173371372
3.76384309023925
3.79017632378077
3.77602944495761
3.76228730678379
3.76715815004092
3.77816582554914
3.7918127388654
3.80660506337173
3.82150880563065
3.8360323422579
3.84983322270156
3.86268635723731
3.87443389524903
3.88500890361512
3.89438812315352
3.90258011514702
3.90961340836217
3.91552991399489
3.92037958469815
3.9242170029914
3.92709877989913
3.92908184305496
3.93022218662064
3.93057408282266
3.93018954408494
3.92911800673229
3.92740620397113
3.92509806157383
3.9222346889391
3.91885451626416
3.91499336517241