/*--------------------------------*- C++ -*----------------------------------*\
  =========                 |
  \\      /  F ield         | OpenFOAM: The Open Source CFD Toolbox
   \\    /   O peration     | Website:  https://openfoam.org
    \\  /    A nd           | Version:  7
     \\/     M anipulation  |
\*---------------------------------------------------------------------------*/
FoamFile
{
    version     2.0;
    format      ascii;
    class       surfaceScalarField;
    location    "3000";
    object      phi;
}
// * * * * * * * * * * * * * * * * * * * * * * * * * * * * * * * * * * * * * //

dimensions      [0 3 -1 0 0 0 0];

internalField   nonuniform List<scalar> 
30950
(
7.9161308409262e-05
-9.25446732399195e-06
7.66406220992678e-05
2.52070911336626e-06
2.98025550038767e-05
4.68380566251352e-05
-1.27755787365966e-05
4.2578162292954e-05
-2.78326430888269e-05
1.5057076416213e-05
-2.24603211377315e-05
-5.3723394114396e-06
-1.70364421126123e-05
-5.42388184004089e-06
-1.35190500001539e-05
-3.51739378898555e-06
-1.2082549243708e-05
-1.4364982399192e-06
-1.11694453189885e-05
-9.13104725316577e-07
-1.08168795339331e-05
-3.52566017139498e-07
-1.09301141451892e-05
1.13233825115161e-07
-1.14818800870194e-05
5.51766747412003e-07
-1.26696400323897e-05
1.18775931378706e-06
-1.46766682406687e-05
2.00702840025064e-06
-1.75279895608391e-05
2.85132117818878e-06
-2.0887359512482e-05
3.35937030869556e-06
-2.46366705142552e-05
3.74931056943937e-06
-2.86004258387843e-05
3.96375565348035e-06
-3.24173267546878e-05
3.81690043917897e-06
-3.57067218335421e-05
3.28939507052065e-06
-3.87080929079959e-05
3.0013709864997e-06
-4.14720696397852e-05
2.7639768022374e-06
-4.35493290720505e-05
2.07725937256883e-06
-4.48357332903446e-05
1.28640417007013e-06
-4.52620639085742e-05
4.26330475282271e-07
-4.49790144911202e-05
-2.83048896457897e-07
-5.58246061950201e-05
1.08455911637104e-05
-7.21160921197952e-05
1.62914862717871e-05
-8.38931947740099e-05
1.17771019900153e-05
-9.21086716324273e-05
8.21547684427593e-06
-9.79461607661079e-05
5.83748917753636e-06
-0.00010209174792125
4.14558735118647e-06
-0.000104916699921027
2.82495238316121e-06
-0.000106688116014365
1.77141692287386e-06
-0.00010757297585835
8.84859319393781e-07
-0.000107699788456656
1.26812794477e-07
-0.000107174997815322
-5.24791589103154e-07
-0.000106092182117415
-1.08281500027405e-06
-0.000104530472736834
-1.56170972187135e-06
-0.000102560309097901
-1.97016309960141e-06
-0.000100244641689668
-2.31566793364867e-06
-9.76399794526253e-05
-2.60466121369694e-06
-9.47969155923497e-05
-2.84306405677436e-06
-9.17605451650971e-05
-3.03637003544114e-06
-8.85708502789051e-05
-3.18969572183041e-06
-8.52630517203178e-05
-3.30779829177827e-06
-8.18680165464562e-05
-3.39503576639842e-06
-7.84126352309534e-05
-3.45538085286091e-06
-7.49202294648767e-05
-3.4924060416504e-06
-7.14109408213546e-05
-3.50928853250228e-06
-6.79020866511018e-05
-3.50885450249256e-06
-6.44085169323609e-05
-3.49356941144349e-06
-6.09429206104151e-05
-3.46559634700608e-06
-5.7516094153478e-05
-3.42682602426192e-06
-5.41372155242846e-05
-3.3788787405848e-06
-5.0814054239532e-05
-3.32316079448464e-06
-4.75531656724181e-05
-3.26088864641302e-06
-4.43600636343393e-05
-3.1931018492705e-06
-4.12393780642546e-05
-3.12068589458214e-06
-3.81949917043624e-05
-3.04438615106547e-06
-3.52301633410174e-05
-2.96482856703849e-06
-3.23476336638268e-05
-2.88252970979349e-06
-2.95497257351304e-05
-2.7979082262979e-06
-2.68384368758739e-05
-2.71128895348568e-06
-2.42155278174172e-05
-2.62290916685078e-06
-2.16825916319185e-05
-2.53293633420177e-06
-1.92411283582897e-05
-2.4414632922089e-06
-1.68926511518701e-05
-2.34847730939564e-06
-1.46387845892449e-05
-2.2538664844149e-06
-1.2481317785291e-05
-2.15746691214808e-06
-1.0422448247599e-05
-2.05886935472304e-06
-8.46465922499602e-06
-1.95778935172791e-06
-6.61057551538398e-06
-1.85408365570973e-06
-4.86289784875431e-06
-1.74767801549879e-06
-3.22472714298076e-06
-1.63817056524716e-06
-1.69952845854945e-06
-1.52519877508238e-06
-2.92000489954985e-07
-1.40752751938516e-06
9.92192770726244e-07
-1.28419333597216e-06
2.14523660372067e-06
-1.15304332397884e-06
3.15845498906072e-06
-1.01321893146023e-06
4.01886635637041e-06
-8.60411309289219e-07
4.71258710407675e-06
-6.93721126256102e-07
5.21725166846222e-06
-5.04664367770036e-07
5.51081469191237e-06
-2.93563105026895e-07
5.55481984827127e-06
-4.40045821339284e-08
5.31457330546503e-06
2.40246189981354e-07
4.71733251820891e-06
5.97241100683766e-07
3.69418433430337e-06
1.02314801080169e-06
2.09588218188745e-06
1.59830266300143e-06
-2.6689593146525e-07
2.36277815638292e-06
-3.84819232573536e-06
3.58129629341681e-06
-7.658582531973e-06
3.81038981759529e-06
-8.11188816125151e-06
4.53305899618358e-07
-7.95350853122856e-06
-1.58380014083233e-07
-6.32060367965544e-06
-1.63290457463488e-06
-3.89241262809224e-06
-2.42819112120639e-06
-3.82259357825668e-07
-3.51015327748514e-06
4.12962598810911e-06
-4.51188542816106e-06
1.00048120647141e-05
-5.8751860743958e-06
1.67022860875122e-05
-6.69747409476415e-06
2.41880877593566e-05
-7.48580178826393e-06
3.20746732977062e-05
-7.88658580310829e-06
4.0066912729989e-05
-7.99223871360775e-06
4.68156053556382e-05
-6.74869287296342e-06
5.25754814535288e-05
-5.75987596850622e-06
5.76591923990238e-05
-5.08371107387304e-06
6.23425498973465e-05
-4.68335821550562e-06
6.72284795907492e-05
-4.88592872487498e-06
7.39200712765479e-05
-6.6915921512473e-06
8.45234124484875e-05
-1.06033409969176e-05
9.85684154509179e-05
-1.40450029913548e-05
0.000116920269726207
-1.8351854526339e-05
0.000143801086355239
-2.68808158471655e-05
0.000178026667764233
-3.42255812841309e-05
0.000199530852796712
-2.15041860404226e-05
0.000164422889130143
3.51079662398384e-05
0.000112935968137402
5.14869192696001e-05
7.02620014831167e-05
4.26739710136126e-05
3.5512862913647e-07
0.000247990282343843
-1.3525699891504e-05
0.000236833554785532
1.36774538989974e-05
0.000136299286779904
0.000147372317218512
8.08803054691221e-06
0.000170789448051216
-5.90543481649456e-05
8.21994608864131e-05
-5.7679149686626e-05
-6.74755455069089e-06
-4.55139877160311e-05
-1.75890472741607e-05
-3.757420448713e-05
-1.14571792500909e-05
-3.40755825965608e-05
-4.93511679298665e-06
-3.22698467206663e-05
-2.71884139726565e-06
-3.18365904384781e-05
-7.85822652780268e-07
-3.2751132949706e-05
1.02777521576306e-06
-3.49901754389823e-05
2.79081033736899e-06
-3.90587619444174e-05
5.25634508549683e-06
-4.53171490877881e-05
8.26541582576757e-06
-5.3654339801112e-05
1.11885117494512e-05
-6.32993591336323e-05
1.30043900170201e-05
-7.38687240584706e-05
1.43186751106248e-05
-8.48835914567028e-05
1.49786233525886e-05
-9.56157960592365e-05
1.45491046415703e-05
-0.000105519273708355
1.31928727173513e-05
-0.000114954273845201
1.24363710627468e-05
-0.000123838512999762
1.1648216014404e-05
-0.000131367284218181
9.60603054966487e-06
-0.000137366170654301
7.28529057687217e-06
-0.000143292292615477
6.35245233916303e-06
-0.000152927769832835
9.35242869053207e-06
-0.000179312693999675
3.72305149651352e-05
-0.000210291468218363
4.72702607248129e-05
-0.00023153358135583
3.301921471849e-05
-0.000245136748910881
2.18186443897526e-05
-0.000253948486549199
1.46492268401553e-05
-0.000259315625281589
9.51272619347841e-06
-0.000262069753775494
5.57908109833014e-06
-0.000262751815273898
2.45347890761462e-06
-0.000261735820533622
-1.31135732949691e-07
-0.000259301890596183
-2.30711702487167e-06
-0.00025568079648825
-4.14588623636474e-06
-0.000251065156929233
-5.69845416817531e-06
-0.000245614859616076
-7.01200723634927e-06
-0.000239467776475913
-8.11724594021597e-06
-0.000232743972737514
-9.03947197514269e-06
-0.000225548462805653
-9.80017058300688e-06
-0.00021797320461074
-1.04183223736756e-05
-0.000210098607641456
-1.09109667897346e-05
-0.000201994845030701
-1.12934588015315e-05
-0.000193722971735431
-1.15796714379034e-05
-0.000185335979253484
-1.17820285703688e-05
-0.000176879726478818
-1.19116333885745e-05
-0.000168393815935758
-1.19783167481409e-05
-0.000159912379507488
-1.19907249027488e-05
-0.000151464776081386
-1.19564580847331e-05
-0.000143076234478311
-1.18821108917443e-05
-0.000134768399952203
-1.17734309052654e-05
-0.000126559815546683
-1.16354102027315e-05
-0.000118466371841464
-1.14723225235647e-05
-0.000110501666186645
-1.12878661891409e-05
-0.00010267732829942
-1.1085226592914e-05
-9.5003310608064e-05
-1.0867119445229e-05
-8.74881482674434e-05
-1.0635848428523e-05
-8.01391876554146e-05
-1.03933466536539e-05
-7.29627916238743e-05
-1.01412247220366e-05
-6.5964522368546e-05
-9.88079898877208e-06
-5.91493148183573e-05
-9.61311594885271e-06
-5.25216406434928e-05
-9.33896318586788e-06
-4.60856696962178e-05
-9.0588801702599e-06
-3.98454107755472e-05
-8.77319535507539e-06
-3.38048570975303e-05
-8.48201698497863e-06
-2.79681873479315e-05
-8.18514712598136e-06
-2.23399586975157e-05
-7.88209509155119e-06
-1.69252708649176e-05
-7.57215481301769e-06
-1.17299937706405e-05
-7.25414633203785e-06
-6.76057809844609e-06
-6.92720523316773e-06
-2.02384468144682e-06
-6.59081704381877e-06
2.47281766468305e-06
-6.24434056983734e-06
6.72118640144166e-06
-5.88653922023018e-06
1.07119188869853e-05
-5.51593131682851e-06
1.44329037420648e-05
-5.12851210677129e-06
1.78688381430054e-05
-4.720127788673e-06
2.10000728584211e-05
-4.28427770980255e-06
2.38027303107313e-05
-3.81587674565796e-06
2.62453493490764e-05
-3.3030303163949e-06
2.82896884150535e-05
-2.73806042670391e-06
2.98832105616709e-05
-2.09818639733018e-06
3.0962967886663e-05
-1.37332048228613e-06
3.14392563267695e-05
-5.20292650918848e-07
3.12102721125135e-05
4.6923016062035e-07
3.01088800968549e-05
1.69863331422913e-06
2.79322907650747e-05
3.19973722311092e-06
2.43159207088024e-05
5.21467306803941e-06
1.87425010607018e-05
7.93619783181053e-06
1.02583351532944e-05
1.20654621333175e-05
2.10940943018765e-06
1.19593152672318e-05
5.7976982417056e-07
1.98294570262439e-06
1.73346275384317e-06
-1.31207321064494e-06
5.83638790416127e-06
-5.73582953114695e-06
1.20375412969894e-05
-8.62934456127069e-06
2.04840673372409e-05
-1.19566793201075e-05
3.12350971618809e-05
-1.52629153037299e-05
4.46483165445758e-05
-1.92884054495542e-05
5.99424407053895e-05
-2.19915982926718e-05
7.68421822670969e-05
-2.4385543414689e-05
9.47577524044315e-05
-2.5802156097196e-05
0.000112941899890039
-2.61763856516153e-05
0.000129286497929148
-2.3093291103369e-05
0.000143637840044477
-2.01112179715629e-05
0.000156350442766572
-1.77963138692909e-05
0.000167951032094981
-1.62839480490457e-05
0.000179560972855505
-1.6495868678863e-05
0.000194164770898368
-2.12953906152818e-05
0.000215878920918308
-3.23174908545724e-05
0.000245277280202681
-4.34433622602178e-05
0.000284286125414971
-5.73606999812803e-05
0.000338824770467611
-8.1419460211485e-05
0.000409074128418987
-0.000104474939153054
0.000467151647293858
-7.95817058269378e-05
0.00044539897201733
5.6860643694125e-05
0.00036440882888519
0.000132477060824304
0.000273297766897119
0.000133785035833357
2.99338234302191e-05
0.000392569525150766
-3.41660221890027e-06
0.000376255860225828
2.99911285335224e-05
0.000261525602419544
0.000262102570479471
6.92390576604428e-05
0.000363076010124904
-6.45261540656584e-05
0.000215964677802504
-8.39762749024286e-05
1.27025518603934e-05
-7.00566486881527e-05
-3.1508676743381e-05
-5.97947448112133e-05
-2.17190851941833e-05
-5.51160929338803e-05
-9.61376599570874e-06
-5.30952282266929e-05
-4.739706739803e-06
-5.30874476766082e-05
-7.93603456184763e-07
-5.52467555559059e-05
3.18708217626115e-06
-5.96132079219662e-05
7.15726359369782e-06
-6.68866953027874e-05
1.25298318819188e-05
-7.74086726248803e-05
1.87873933722625e-05
-9.07549263141668e-05
2.45347653173568e-05
-0.000105752402303506
2.80018662749067e-05
-0.000121662135555972
3.02284080702452e-05
-0.000137680989042955
3.09974770375879e-05
-0.00015289641135891
2.97645266772389e-05
-0.000166840416774789
2.71368781212604e-05
-0.00017986587878585
2.54618330281754e-05
-0.000191863960834396
2.36462980898013e-05
-0.000202318795096217
2.00608647818495e-05
-0.000211635747307687
1.66022427674008e-05
-0.000222108960136568
1.68256651098305e-05
-0.000238106081860218
2.53495506074728e-05
-0.000266415876468951
6.55403093789611e-05
-0.000294727046051685
7.55814304268427e-05
-0.000312767423762688
5.10595922192858e-05
-0.000323479451439121
3.25306720620045e-05
-0.000329577317539411
2.07470929523667e-05
-0.000332286019964851
1.22214286722698e-05
-0.000332422563238806
5.71562448059976e-06
-0.000330503582523421
5.34498430612525e-07
-0.000326916579669336
-3.7181387346653e-06
-0.000321952587802885
-7.27110883275204e-06
-0.00031583526271888
-1.0263211571864e-05
-0.000308751674663101
-1.27820420373133e-05
-0.000300862007166616
-1.49016748214627e-05
-0.000292304324830776
-1.66749281315128e-05
-0.000283198779546596
-1.81450173919314e-05
-0.000273650264352508
-1.93486855126674e-05
-0.000263750498299217
-2.0318088476068e-05
-0.000253579583888861
-2.10818810958403e-05
-0.000243207375060406
-2.1665667836545e-05
-0.000232694642596065
-2.20924038300904e-05
-0.000222094149693847
-2.23825216100716e-05
-0.000211451603775414
-2.25541791944336e-05
-0.000200806534254822
-2.26233863335344e-05
-0.000190193074265907
-2.26041848562081e-05
-0.000179640655870198
-2.25088765396984e-05
-0.000169174639290917
-2.23481274089605e-05
-0.000158816849515387
-2.21312206844732e-05
-0.000148586054406209
-2.18662052011045e-05
-0.000138498398866303
-2.15599780854117e-05
-0.000128567760966182
-2.12185039651422e-05
-0.000118806074505176
-2.08469130689108e-05
-0.000109223619226025
-2.04495746729327e-05
-9.9829279623396e-05
-2.00301881049291e-05
-9.06307754719492e-05
-1.9591850750234e-05
-8.16348704187399e-05
-1.91371298208468e-05
-7.28475624282929e-05
-1.86681069829144e-05
-6.4274264703717e-05
-1.81864137410152e-05
-5.59199799703985e-05
-1.76932479383932e-05
-4.77894744840601e-05
-1.71893856750964e-05
-3.98874412548254e-05
-1.66752286218476e-05
-3.22186654228719e-05
-1.61507928176741e-05
-2.47882415904767e-05
-1.56155709812477e-05
-1.76017928917271e-05
-1.50685437671713e-05
-1.06656762746124e-05
-1.45082714549899e-05
-3.98705929059899e-06
-1.39327632641755e-05
2.42631903760584e-06
-1.33405836461213e-05
8.56673966408744e-06
-1.27312376554391e-05
1.44260779832345e-05
-1.21036789724664e-05
1.99942805508238e-05
-1.14547417512165e-05
2.5258809181754e-05
-1.07804599691812e-05
3.02042428306729e-05
-1.00739456415511e-05
3.48114276358507e-05
-9.32731261180131e-06
3.9056478766461e-05
-8.52932869854099e-06
4.29096048329652e-05
-7.66900296178383e-06
4.63330388639639e-05
-6.72646433026617e-06
4.92790344655246e-05
-5.68405612405644e-06
5.1685423117952e-05
-4.50457499565768e-06
5.34730317560187e-05
-3.16092913913656e-06
5.45352517152183e-05
-1.58251244847979e-06
5.47380539761993e-05
2.66427797160087e-07
5.38863270972515e-05
2.55036028173761e-06
5.17267791148051e-05
5.35928515847947e-06
4.78454064752226e-05
9.09604586207612e-06
4.16478430132119e-05
1.41337613024181e-05
3.20827857702507e-05
2.16305193422042e-05
2.30799151191159e-05
2.0962185794906e-05
2.07505990946911e-05
4.31226181132269e-06
2.239754597198e-05
-2.95902020722359e-06
2.73925537713956e-05
-1.0730837249184e-05
3.51926169746812e-05
-1.64294077901206e-05
4.57001651284693e-05
-2.24642274785865e-05
5.91177146177098e-05
-2.86804648194953e-05
7.56495372381375e-05
-3.58202280706368e-05
9.46627294065962e-05
-4.10047904830858e-05
0.000115715050515516
-4.54378645611431e-05
0.000138241064826949
-4.83281704887587e-05
0.000161327134733545
-4.9262455318358e-05
0.000183025700684218
-4.47918571636461e-05
0.000202811583308283
-3.98971005435193e-05
0.000220940640173931
-3.59253707777643e-05
0.000237945612466289
-3.32889206051229e-05
0.000254966379230854
-3.35166350544392e-05
0.000275061023830863
-4.13900354593508e-05
0.000302663298390751
-5.99197653173346e-05
0.000339188394402795
-7.99684582535428e-05
0.000386548687717387
-0.000104720993423538
0.000449408370738249
-0.000144279142779354
0.000528598499031592
-0.000183665067343041
0.000601333076153646
-0.000152316283432095
0.000608512713514332
4.96810078030537e-05
0.000546034680831377
0.000194955092400254
0.000453084486967006
0.000226735231051094
8.03396744036946e-05
0.000491553613710967
1.58622741110626e-05
0.000474323319503323
4.72214287541524e-05
0.000368811762049283
0.000367614125678511
0.00015078907145485
0.000581098714414669
-4.16825959019242e-05
0.000408436345163282
-9.66463641635427e-05
6.76663108542699e-05
-8.80034216410503e-05
-4.01516217770441e-05
-7.80851353588719e-05
-3.16373732883241e-05
-7.36618049891948e-05
-1.40370937917537e-05
-7.23191887891624e-05
-6.08232338245781e-06
-7.33496617938777e-05
2.36869239646532e-07
-7.70959544167088e-05
6.9333738371904e-06
-8.36869122495381e-05
1.37482222962405e-05
-9.38103781114074e-05
2.26532972561099e-05
-0.000107531275071791
3.25082905606807e-05
-0.000123963661198918
4.09671513673754e-05
-0.000141599563276407
4.56377685565303e-05
-0.000159485198928119
4.81140435536939e-05
-0.00017678895365961
4.8301231898377e-05
-0.00019280897166534
4.57845445309716e-05
-0.000207414187617281
4.17420940743964e-05
-0.00022104719808718
3.90948434815465e-05
-0.0002336906543749
3.62897543971676e-05
-0.000245151161354727
3.15213717502267e-05
-0.000256100296457017
2.75513778636586e-05
-0.000268607390046376
2.93327586711334e-05
-0.00028630410462657
4.30462652959975e-05
-0.000312045490746528
9.12816953940963e-05
-0.000335517520480865
9.90534602300865e-05
-0.00035007333048199
6.5615402113474e-05
-0.000358451324225339
4.09086658037623e-05
-0.000362720697894609
2.5016466626228e-05
-0.000363860254149083
1.3360984949662e-05
-0.000362580680137745
4.43605052128667e-06
-0.000359342956439398
-2.70322514576344e-06
-0.000354499579698815
-8.56151555480388e-06
-0.000348318073875294
-1.34526146249631e-05
-0.000341016380920408
-1.75649046553154e-05
-0.000332773569774833
-2.10248530907944e-05
-0.000323745029152758
-2.39302154936106e-05
-0.000314065343433761
-2.635461378059e-05
-0.000303852213508039
-2.83581473908612e-05
-0.000293208729438043
-2.99921694545836e-05
-0.000282225284423663
-3.13015335226181e-05
-0.000270981013315158
-3.23261521548818e-05
-0.000259545083796309
-3.31015974640211e-05
-0.000247977811046028
-3.36596765461002e-05
-0.000236331688612581
-3.40286441129681e-05
-0.000224652309351205
-3.42335584084231e-05
-0.000212979212266411
-3.42964834583329e-05
-0.000201346638148065
-3.42367589619406e-05
-0.000189784204161256
-3.40713105511866e-05
-0.000178317511490482
-3.38148200689645e-05
-0.000166968666146397
-3.34800660418254e-05
-0.00015575674563042
-3.30781256717459e-05
-0.00014469821843845
-3.26185052989899e-05
-0.000133807294054657
-3.21094282972636e-05
-0.000123096240287893
-3.15579668532226e-05
-0.000112575670371353
-3.09701445720707e-05
-0.000102254799094228
-3.03510594262746e-05
-9.21416727668309e-05
-2.97049770572572e-05
-8.224337900886e-05
-2.90354236073073e-05
-7.25662407610848e-05
-2.83452452369163e-05
-6.31160008921883e-05
-2.76366536464196e-05
-5.38980014107669e-05
-2.6911247432684e-05
-4.49173636764539e-05
-2.61700234187158e-05
-3.61791632845336e-05
-2.54134290391171e-05
-2.76886090564063e-05
-2.46413470499471e-05
-1.9451264380491e-05
-2.38529156728817e-05
-1.14732819962531e-05
-2.30465261428363e-05
-3.76161303043472e-06
-2.22199404361871e-05
3.67628373281005e-06
-2.13706600009071e-05
1.08329693303853e-05
-2.04972692908442e-05
1.77007264899032e-05
-1.95989948102851e-05
2.42705115074119e-05
-1.8673464032144e-05
3.05311477144926e-05
-1.77153779421605e-05
3.64688990420332e-05
-1.67182113092499e-05
4.20670644375523e-05
-1.56721109822725e-05
4.73050421441172e-05
-1.45652903304521e-05
5.21573921402699e-05
-1.33816786186038e-05
5.65922369789402e-05
-1.21038478861102e-05
6.05696564208823e-05
-1.07038837671706e-05
6.40387787055902e-05
-9.15317845954406e-06
6.69345233701174e-05
-7.40031963560344e-06
6.91727984377647e-05
-5.39920421804448e-06
7.06423461244316e-05
-3.05206005060328e-06
7.11990514822623e-05
-2.90277620286054e-07
7.06435439750549e-05
3.1058678319154e-06
6.87149217701442e-05
7.28790733550616e-06
6.50099488181273e-05
1.28010188977623e-05
5.89744163658396e-05
2.0169293759355e-05
4.96513554443607e-05
3.09535802481522e-05
4.08406049860447e-05
2.97729361890278e-05
3.82062083252672e-05
6.94665851924705e-06
4.00183951160348e-05
-4.77120705865025e-06
4.53709070287721e-05
-1.60833491179861e-05
5.38586294183559e-05
-2.49171301914299e-05
6.52828824195467e-05
-3.38884804794006e-05
7.98657924549807e-05
-4.32633748648407e-05
9.77177641898301e-05
-5.36721998004852e-05
0.000118297719550583
-6.1584745847077e-05
0.000141096113458865
-6.82362584787943e-05
0.00016555355569731
-7.27856127550539e-05
0.000190705054695821
-7.44139541666355e-05
0.000214795846398972
-6.88826489234161e-05
0.00023717157385273
-6.22728279585481e-05
0.000258037776768367
-5.67915737029943e-05
0.000277920365045516
-5.31715090090029e-05
0.000297935959265559
-5.35322290262651e-05
0.000320959962335255
-6.44140386802862e-05
0.000351239580840965
-9.01993837628895e-05
0.000390565807169183
-0.000119294684571975
0.000440766536611018
-0.000154921722959359
0.000505529876646606
-0.000209042482551267
0.000585776259409031
-0.000263911450074731
0.000661718816774313
-0.00022825884115992
0.00068501008965871
2.6389735789781e-05
0.000643992748490988
0.000235972432787731
0.000565766215984064
0.000304961764227298
0.000135273393340486
0.000562232789094271
3.8789544295461e-05
0.000544791237522044
6.46629839437337e-05
0.000453729440936205
0.000458675920470872
0.000235540503570629
0.000799287659533819
1.96387625121705e-06
0.000642012974125023
-9.42672944568483e-05
0.000163897474580169
-9.78152566723196e-05
-3.66036615238495e-05
-9.06010428472326e-05
-3.88515883923078e-05
-8.77047105167295e-05
-1.69334246215848e-05
-8.79113439874271e-05
-5.87569019933999e-06
-9.04424950461402e-05
2.76802015337343e-06
-9.57953481740337e-05
1.22862263730748e-05
-0.000104144131613127
2.2097006283488e-05
-0.000116029982121255
3.45391474493542e-05
-0.000131217427161012
4.76957357369199e-05
-0.000148567294556255
5.8317018700119e-05
-0.000166613066609201
6.36835407255229e-05
-0.00018453343661386
6.6034413434592e-05
-0.000201707356814002
6.54751521705393e-05
-0.00021768376011575
6.17609477249922e-05
-0.000232503633355072
5.6561967306075e-05
-0.000246556185684687
5.31473957928758e-05
-0.000259810829972139
4.95443986916067e-05
-0.000272191361915971
4.39019036819469e-05
-0.000284363886280071
3.97239022193493e-05
-0.000297956586780426
4.29254591491706e-05
-0.000315821587226338
6.09112658056563e-05
-0.000339043506004121
0.000114503614104555
-0.000359221120788079
0.000119231075053739
-0.000371722726303004
7.81170075586837e-05
-0.000378811831189892
4.79977706903539e-05
-0.000382088017527185
2.82926529673284e-05
-0.000382380613699358
1.36535811382423e-05
-0.000380329322668881
2.38475952517673e-06
-0.000376357932953206
-6.67461478323665e-06
-0.000370799888314201
-1.4119560240182e-05
-0.000363912913446195
-2.03395894731456e-05
-0.000355909948026552
-2.55678701523775e-05
-0.000346967576815615
-2.99672242413545e-05
-0.000337239729960115
-3.36580623743617e-05
-0.000326860258905351
-3.67340847874627e-05
-0.000315946625748561
-3.92717805858796e-05
-0.000304601961521814
-4.13368335957378e-05
-0.000292916877318478
-4.29866177386392e-05
-0.000280970841951911
-4.42721874862604e-05
-0.000268833435643952
-4.52390038346378e-05
-0.000256565443617849
-4.59276685483812e-05
-0.000244219869352105
-4.63742184177307e-05
-0.000231842844622336
-4.66105831024053e-05
-0.000219474464824318
-4.66648632739652e-05
-0.00020714953505181
-4.65616887206136e-05
-0.000194898236909312
-4.63226087065718e-05
-0.000182746727703955
-4.59663292544578e-05
-0.000170717655698482
-4.55091380443721e-05
-0.000158830622505128
-4.49651588267366e-05
-0.000147102597108041
-4.43465306982971e-05
-0.000135548264834785
-4.36637605288543e-05
-0.00012418034395044
-4.29258877385214e-05
-0.000113009872999185
-4.21406155042322e-05
-0.000102046467569647
-4.13144648748388e-05
-9.12985519696879e-05
-4.04528926382838e-05
-8.07735719682354e-05
-3.95604036201138e-05
-7.04781929795251e-05
-3.86406242245941e-05
-6.04184890626201e-05
-3.76963575814043e-05
-5.06001273978638e-05
-3.67296091015007e-05
-4.1028554377654e-05
-3.57415964419778e-05
-3.17091790166866e-05
-3.47328044101422e-05
-2.26475656536144e-05
-3.37029604111978e-05
-1.38496587287686e-05
-3.26508226025736e-05
-5.3220345656452e-06
-3.15741502971214e-05
2.92813173144365e-06
-3.0470106739378e-05
1.08936784901942e-05
-2.93362067431884e-05
1.85674167634155e-05
-2.81710075885963e-05
2.59412015536953e-05
-2.69727795956671e-05
3.3005211833273e-05
-2.57374743349425e-05
3.97475412518122e-05
-2.44577073490259e-05
4.61536954679403e-05
-2.31243655308469e-05
5.22061542982156e-05
-2.17245697781735e-05
5.78834205106882e-05
-2.02425565465944e-05
6.31590742118547e-05
-1.86573322756833e-05
6.80000413384666e-05
-1.69448150571055e-05
7.23651105495984e-05
-1.50689529722382e-05
7.62017722493151e-05
-1.29898401860735e-05
7.94433500708228e-05
-1.0641897439253e-05
8.20035139702637e-05
-7.95936812117072e-06
8.37691027363523e-05
-4.81764876721884e-06
8.45917823511506e-05
-1.11295726514949e-06
8.42720539533902e-05
3.42559625715538e-06
8.25511877509763e-05
9.00877352610174e-06
7.90438160696494e-05
1.63083906273543e-05
7.3248294150284e-05
2.59648156796033e-05
6.43374004346644e-05
3.98644739518662e-05
5.58806144338632e-05
3.82297221520065e-05
5.31880929858831e-05
9.63917999136905e-06
5.51221901606943e-05
-6.70530426963109e-06
6.07453526506036e-05
-2.17065115856695e-05
6.97015731540784e-05
-3.38733507048148e-05
8.17577230092404e-05
-4.5944630337163e-05
9.71193219526257e-05
-5.86249738170603e-05
0.000115838111939717
-7.23909897883784e-05
0.000137409317044689
-8.31559509592675e-05
0.000161288869076234
-9.21158105232958e-05
0.000186897212816311
-9.83939565202581e-05
0.000213235151485266
-0.0001007518927666
0.00023866602550085
-9.43135229805283e-05
0.000262503257215173
-8.61100596555301e-05
0.000284927357009702
-7.92156735103297e-05
0.000306465394096252
-7.47095461795358e-05
0.000328245612843974
-7.53124476571461e-05
0.000353034992475881
-8.92034184031593e-05
0.000384906648656009
-0.000122071039905746
0.000425826441626565
-0.000160214477531485
0.0004776195569454
-0.000206714838321735
0.000543416116081324
-0.000274839041500442
0.000623767967173425
-0.000344263301109313
0.000699822577646701
-0.000304313451806457
0.000729820777779806
-3.60846370577411e-06
0.000701778220453812
0.00026401498960577
0.000637302706711473
0.000369437278345801
0.000187416035702838
0.000618056599429657
6.24194050344417e-05
0.000600569691765237
8.21498945345117e-05
0.000523099088097772
0.000536146523348822
0.000316571462178761
0.00100581529307495
5.73828945665747e-05
0.000901201540637991
-7.98416413621531e-05
0.000301122006569865
-0.000101119314665221
-1.5325989527465e-05
-9.78638570540819e-05
-4.21070469839848e-05
-9.68307449267703e-05
-1.79665354145133e-05
-9.88668178401872e-05
-3.83961743530985e-06
-0.000103006485600507
6.90768772515647e-06
-0.000109778952402946
1.90586926033698e-05
-0.000119364195348595
3.16822497069558e-05
-0.00013218721047409
4.73621623403709e-05
-0.000147891059047533
6.33995844451038e-05
-0.000165351899915217
7.57778595364046e-05
-0.000183322705039749
8.16543459436834e-05
-0.000201155074161806
8.38667824937694e-05
-0.000218367178019521
8.26872560821473e-05
-0.000234611541839851
7.80053114885612e-05
-0.000249945634013483
7.18960594825592e-05
-0.000264662729345644
6.78644911206014e-05
-0.000278701005732862
6.35826750880748e-05
-0.000292018026023203
5.72189239683555e-05
-0.000305195730312885
5.29016065077325e-05
-0.000319471818019591
5.72015468438135e-05
-0.000337078354776312
7.85178026076699e-05
-0.000358283738487914
0.000135708997772148
-0.000376180901306982
0.000137128237902132
-0.000387338756644434
8.92748628524641e-05
-0.000393595899512911
5.42549135590195e-05
-0.000396223995632607
3.09207490883411e-05
-0.000395955138811842
1.33847243252838e-05
-0.000393378286322689
-1.9209294422888e-07
-0.000388893599602443
-1.11593014528524e-05
-0.000382822563637041
-2.01905962390067e-05
-0.000375416933453232
-2.77452196443013e-05
-0.000366887026591326
-3.40977770663534e-05
-0.000357409312381049
-3.9444938414279e-05
-0.000347137960421157
-4.39294143547e-05
-0.000336207474738885
-4.76645704414905e-05
-0.000324736172694076
-5.0743082660661e-05
-0.000312828121200446
-5.32448850371024e-05
-0.000300574884830259
-5.52398541227839e-05
-0.00028805687487883
-5.67901974180059e-05
-0.000275344587843314
-5.79512909164382e-05
-0.000262499694673046
-5.87725617059435e-05
-0.000249576051047548
-5.9297862071283e-05
-0.000236620607510923
-5.95660266221725e-05
-0.000223674243569229
-5.96112272339911e-05
-0.000210772512879499
-5.94634194064836e-05
-0.000197946309158865
-5.91488124361551e-05
-0.000185222463701355
-5.86901747120817e-05
-0.000172624260219386
-5.81073415339084e-05
-0.00016017189690555
-5.74175221233909e-05
-0.000147882899667215
-5.66355279470232e-05
-0.000135772472628791
-5.57741875478377e-05
-0.000123853816179941
-5.48445441964834e-05
-0.000112138416401184
-5.38560152775439e-05
-0.000100636304228593
-5.28165770671374e-05
-8.93562901248247e-05
-5.17329067354983e-05
-7.83061806559414e-05
-5.06105131021574e-05
-6.74929812356859e-05
-4.94538236487013e-05
-5.69230900758258e-05
-4.8266248757141e-05
-4.66024885997227e-05
-4.70502105838934e-05
-3.65369335945536e-05
-4.58071514510995e-05
-2.67321481164572e-05
-4.45375899002667e-05
-1.71940290298727e-05
-4.32410795003071e-05
-7.92887573847879e-06
-4.19159759010305e-05
1.05645573831734e-06
-4.05594817708036e-05
9.75495070327315e-06
-3.91686017111998e-05
1.81598147265537e-05
-3.77410707560899e-05
2.6263708568135e-05
-3.62749014509331e-05
3.40579118674534e-05
-3.47669828944527e-05
4.15319859764236e-05
-3.32115484614327e-05
4.86734439759224e-05
-3.15991653424422e-05
5.54671871904175e-05
-2.99181087506921e-05
6.18950281383891e-05
-2.81524107040548e-05
6.79347430008341e-05
-2.62822714133871e-05
7.35591044305474e-05
-2.42816936732613e-05
7.87341127398001e-05
-2.21198234036983e-05
8.34175269112568e-05
-1.97523671432583e-05
8.7555658675886e-05
-1.71279719718881e-05