/*--------------------------------*- C++ -*----------------------------------*\
  =========                 |
  \\      /  F ield         | OpenFOAM: The Open Source CFD Toolbox
   \\    /   O peration     | Website:  https://openfoam.org
    \\  /    A nd           | Version:  7
     \\/     M anipulation  |
\*---------------------------------------------------------------------------*/
FoamFile
{
    version     2.0;
    format      ascii;
    class       volVectorField;
    location    "3000";
    object      U;
}
// * * * * * * * * * * * * * * * * * * * * * * * * * * * * * * * * * * * * * //

dimensions      [0 1 -1 0 0 0 0];

internalField   nonuniform List<vector> 
15600
(
(0.0937058672702464 -0.000265312229272171 -1.20312391619025e-21)
(0.109330541312909 -0.00299899432185516 -2.47573313140866e-18)
(0.0770941730654956 -0.0100819433059622 0)
(0.00647650312193134 -0.00412497601080561 -2.07942170793973e-17)
(-0.0351026985022471 0.0139433265558972 -2.45729246568117e-21)
(-0.0321693607562089 0.0183241117071811 -1.23865087247924e-20)
(-0.0211542296618767 0.0144112854346662 -4.19545315609661e-17)
(-0.0160793618429348 0.0120914691512165 4.31170132772651e-17)
(-0.0126435041760057 0.0101265086432172 -1.26024726448598e-14)
(-0.0112334503279169 0.00915580678646117 -1.32140035452056e-14)
(-0.0100166406872894 0.00812000736400689 1.2195932365731e-20)
(-0.0095649458970034 0.00763663659926143 -2.56718699486748e-20)
(-0.00942545587494358 0.00744441169023319 2.69943999664805e-20)
(-0.00975240059655388 0.00764162754380825 -5.77062481453925e-17)
(-0.0106480283715323 0.00828632537404419 -6.00878802369331e-17)
(-0.0121798194475126 0.00940242574137083 -6.07035125132096e-20)
(-0.0141130944901238 0.0107674538146046 -6.40357684036562e-17)
(-0.0162377337413578 0.0120776247074963 1.32682642758182e-16)
(-0.018513894904832 0.0131944750479773 -6.86767130754595e-17)
(-0.0207543119314435 0.0138990413728803 -7.17743970989656e-17)
(-0.0226791075126743 0.0139498417071832 7.47291615606365e-17)
(-0.024321586588556 0.0133277098530682 -7.78390249111262e-17)
(-0.0259079976798483 0.0122516378395234 -2.14980607110076e-22)
(-0.0272461669086026 0.0107375782634857 8.33082362510645e-17)
(-0.0281729541129188 0.00878519336471737 0)
(-0.0286963036620318 0.0064750633719931 0)
(-0.0278067712279489 0.00375381703818315 -6.40227885069695e-15)
(-0.0306917843690658 0.00134242528576307 -6.43558719332192e-15)
(-0.0410838483938573 0.000274533651521942 2.00574186710728e-23)
(-0.050564429301656 0.000283858351274488 5.85008199310761e-31)
(-0.0565802740885305 0.000293750965487303 0)
(-0.061001118013352 0.000297302866887125 -6.7465192685512e-15)
(-0.0641088689344912 0.000301002579916423 -6.79801038524787e-15)
(-0.066301587222475 0.000300664079743214 0)
(-0.0677398268251492 0.000297909541912074 0)
(-0.0685717205780845 0.000291992481713178 0)
(-0.0688802531233835 0.000283375752031873 0)
(-0.0687400212521605 0.000272602416601305 -7.80337437819345e-20)
(-0.0682156293671543 0.000260457734932926 6.47101567482233e-15)
(-0.0673614069710566 0.000247245959927783 6.5662686279433e-15)
(-0.0662246266742639 0.0002333115237414 -7.86418127664129e-20)
(-0.0648478548659233 0.000218947080887916 -7.94620122020105e-20)
(-0.0632691086176473 0.000204405065928222 7.961018735091e-20)
(-0.0615225600448029 0.000189890085133921 -8.05244925156512e-20)
(-0.0596387175762644 0.00017556563616827 8.07625191607376e-20)
(-0.0576447144354311 0.000161557772311855 0)
(-0.0555645249262349 0.000147959961633545 -7.09484644805353e-15)
(-0.0534192112094828 0.000134838996134983 -7.19938903841582e-15)
(-0.051227175399034 0.000122239174733579 -8.35919759026522e-20)
(-0.0490044082679625 0.000110186929861338 4.20700871593377e-20)
(-0.0467647500126693 9.86949795082342e-05 -4.2591972398893e-20)
(-0.0445201239268455 8.77644165847352e-05 8.57563333461342e-20)
(-0.0422807672392653 7.73885111129883e-05 -7.19173723666785e-15)
(-0.0400554459097505 6.75540316676967e-05 -7.27854480018866e-15)
(-0.0378516306167015 5.82426290308228e-05 -2.19588404169685e-20)
(-0.0356756762694552 4.94330947353722e-05 0)
(-0.0335329762211488 4.11017125554835e-05 1.30197692781431e-30)
(-0.0314280868419793 3.32229314812173e-05 -1.1293317785177e-20)
(-0.0293648468847146 2.57702373363312e-05 1.70446815242686e-20)
(-0.0273464816016683 1.87164950415352e-05 -5.7220712767593e-21)
(-0.0253756972555987 1.20344658722714e-05 0)
(-0.0234547642574767 5.69692028231223e-06 1.16568653162518e-20)
(-0.0215855888776454 -3.23115607599906e-07 -1.17155984028827e-20)
(-0.0197697789744208 -6.05233005134047e-06 1.37592375542563e-30)
(-0.018008705134299 -1.1516964661954e-05 0)
(-0.0163035587420084 -1.6742905235915e-05 -2.40128641521188e-20)
(-0.0146554037664193 -2.1755940834242e-05 2.41266197094225e-20)
(-0.0130652210405581 -2.65813438909529e-05 0)
(-0.0115339556245138 -3.1243759912115e-05 0)
(-0.0100626048842477 -3.57676233471341e-05 0)
(-0.00865223387820236 -4.01787463923072e-05 0)
(-0.0073041156061983 -4.44960315215114e-05 0)
(-0.00601975507491942 -4.87449994434776e-05 8.39501465228934e-15)
(-0.00480082235166072 -5.29545330025555e-05 1.68383643543598e-14)
(-0.00364895216264158 -5.72122349246461e-05 8.43772980511724e-15)
(-0.0025660415204065 -6.15942332683356e-05 -2.04465557506906e-19)
(-0.00155406108189657 -6.60555089711812e-05 1.02698363561989e-19)
(-0.00061561713123401 -7.05466216421975e-05 -1.03434612127383e-19)
(0.000246122420449117 -7.50588451360633e-05 1.03622586221572e-19)
(0.00102663985161513 -7.95893397385411e-05 8.69497386599667e-15)
(0.00172120327592311 -8.42882245375093e-05 8.62017052734624e-15)
(0.0023223517792664 -8.91756259187027e-05 -1.04079624367726e-19)
(0.00282260897234852 -9.43997207423883e-05 1.04457605588738e-19)
(0.00320913518110033 -9.99015181177318e-05 -2.09201202809738e-19)
(0.00347007866521275 -0.000105979549335736 1.0478919421282e-19)
(0.00358328919784707 -0.000112475414410057 -2.1062351411458e-19)
(0.00352978965770955 -0.000119912556683681 4.22328961213468e-19)
(0.00327333956085149 -0.000127891998209121 -2.11822253451461e-19)
(0.00277127644080816 -0.000137467956014067 -2.13239647258373e-19)
(0.0019619456027873 -0.000148043121105607 4.28607587427268e-19)
(0.000728914696027996 -0.000160726321680905 0)
(-0.0010480821440593 -0.000174575375020022 -2.64328980231809e-23)
(-0.00403710065778046 -0.000270032007351276 0)
(-0.00533218598295983 -0.000685140703524293 2.16231107420243e-19)
(-0.00522021072527168 -0.000951930643649584 -5.50458222501836e-17)
(-0.00476684028695146 -0.00111229933362261 -5.18809493642216e-22)
(-0.00344537710837864 -0.000836157782839964 -1.03719180106477e-16)
(-0.00159900552955897 -0.000111236143364731 -1.01089226337046e-16)
(0.000949642022911975 0.00126492362799666 9.68073717994046e-17)
(0.0044496899173587 0.00349972499838305 -9.20144175395751e-17)
(0.00884325715245138 0.00660614560370037 8.74405287761945e-17)
(0.0140518948532344 0.0104778400623069 8.32081004177847e-17)
(0.0199787029405062 0.0149747609345314 0)
(0.0266484290589287 0.0199670235465318 0)
(0.0333044460258385 0.024876880402842 -7.28019377558818e-17)
(0.0393966578218966 0.0294931269775802 -6.98195820926512e-17)
(0.0452551489319029 0.0341487685860377 -6.67685431479142e-17)
(0.0511204115174326 0.0390574785987038 -6.35935745870929e-17)
(0.0573194061427149 0.044491046091125 -6.02636842452983e-17)
(0.0647735944353252 0.0511329212393136 5.66119354110442e-17)
(0.0759161845249036 0.0602765098813335 5.26997661635488e-17)
(0.0923604117631634 0.071626865767522 -4.90142149230496e-17)
(0.113806230297971 0.0836403269277851 4.54716112418031e-17)
(0.144524334869901 0.0964123184727913 4.19705926359727e-17)
(0.187532638461319 0.10636027075774 -3.83599700901476e-17)
(0.240490689022408 0.102569463041414 0)
(0.242405891594351 0.0627419329938912 1.62018848339048e-17)
(0.180812134128599 0.0210505762020866 0)
(0.108422636158511 0.00220409061087247 -2.22017513591205e-18)
(0.0813102803852442 -0.000433131450201849 0)
(0.295719932455142 -0.000998017706998523 0)
(0.316700504891443 -0.00737169781173404 -6.17094868208155e-22)
(0.256551366715684 -0.026693399622445 -5.23075059053833e-21)
(0.0865751613440738 -0.0190922394702606 1.79416433254405e-14)
(-0.0602291000495182 0.0308408523803801 1.95760113604906e-14)
(-0.0767727380508504 0.0476891415923774 -6.03437941574678e-17)
(-0.0540508245549991 0.039043684421391 1.4169375556153e-23)
(-0.042213619623861 0.0334875439451917 -6.32848932616178e-17)
(-0.0342331930571478 0.0286528734640293 1.87609229128328e-14)
(-0.0308450160586031 0.0261584819513296 1.95717077774716e-14)
(-0.0281893023978093 0.0235257233705141 -3.61589624023077e-20)
(-0.0273627552128507 0.0223369434381278 3.81394866081849e-20)
(-0.0274714244115244 0.0220150982062217 -3.97524839910885e-20)
(-0.0288577402368953 0.0228219119281326 -8.43944835682632e-17)
(-0.0317413183947768 0.024889262641065 1.73139873837262e-16)
(-0.0361343653077289 0.0281919374161749 -8.58680321287935e-20)
(-0.0414376580443086 0.0320913793666008 8.90769644954467e-17)
(-0.0471793128529328 0.0357582480170897 -9.01187272212792e-17)
(-0.0532039135326167 0.0387621731321358 1.76823514952896e-19)
(-0.0591038298744471 0.0405137013174955 -1.78347122287211e-19)
(-0.0644635911543976 0.040474279685157 -9.16611407697888e-17)
(-0.0694537199238802 0.0386327430737544 9.21326176073733e-17)
(-0.0743704771736801 0.0354631561611215 9.21166360534651e-17)
(-0.0788268734853511 0.0310274822780814 -1.78412561523658e-19)
(-0.0825363749663728 0.0253652949206583 4.53175467853996e-17)
(-0.0855972255695531 0.0187181764321646 -4.49301261813667e-17)
(-0.0888097802984321 0.0114415432039744 6.42128605217293e-15)
(-0.100040378213348 0.0050023705174355 5.93748286155624e-15)
(-0.120970237599599 0.00195419805793167 -3.56099792862179e-23)
(-0.137631709013728 0.00140991899372077 -5.00132474627185e-31)
(-0.147661649612458 0.000960279835524581 0)
(-0.154412445111044 0.000669345512100929 5.58166218785733e-15)
(-0.15862768840791 0.000461643717794757 5.37547934892093e-15)
(-0.161060827852448 0.000301272359377437 2.45830697218311e-19)
(-0.162061175510116 0.000173541620791835 -1.21031818738323e-19)
(-0.161921701073905 6.70086337441732e-05 -1.20327394337911e-19)
(-0.160826808598328 -2.34262939929989e-05 1.18648870859824e-19)
(-0.158933449986209 -0.000100485755100886 8.59322927317134e-31)
(-0.156372044140199 -0.000165963063758827 -4.92490015606934e-15)
(-0.153249678346326 -0.000221734348604494 -4.8639306123498e-15)
(-0.149657202333702 -0.000268952906742477 0)
(-0.145673933978404 -0.000308596330769892 5.90100075036558e-20)
(-0.141368960203886 -0.000341500914118538 2.67084304613509e-22)
(-0.136802872764963 -0.000368419645507374 -5.92848690929099e-20)
(-0.132028666797728 -0.000390039137907749 -5.99351173205256e-20)
(-0.127092656728091 -0.000406987597073276 1.20517502685524e-19)
(-0.122035191987203 -0.000419839991421017 5.27862838260189e-15)
(-0.116891333482555 -0.000429116481657819 5.29259166416158e-15)
(-0.111691463503674 -0.000435286000078252 6.18360277582403e-20)
(-0.106461840434375 -0.000438766458725931 0)
(-0.101225117835636 -0.000439927126404974 -3.17212385479761e-20)
(-0.0960007944195166 -0.000439094138940857 3.19743832855727e-20)
(-0.0908056336472237 -0.000436550971342788 5.4104075502709e-15)
(-0.085654030527994 -0.000432545299221278 5.45814268345088e-15)
(-0.0805583194077947 -0.000427292715849319 -1.664913713446e-20)
(-0.0755290705419261 -0.000420977701173013 -5.38693615759914e-23)
(-0.0705753363624767 -0.000413760066006165 -5.28742490219409e-23)
(-0.0657048570021397 -0.000405777684340288 1.72649242635731e-20)
(-0.0609242535827293 -0.000397148221032058 -4.38792212409177e-21)
(-0.0562391958359921 -0.000387971732784035 4.43551473788024e-21)
(-0.0516545532876778 -0.000378332360510027 -4.509487303296e-21)
(-0.0471745286438538 -0.000368300536358984 4.56010491842778e-21)
(-0.0428027757343434 -0.000357934274599763 1.85446168887997e-20)
(-0.0385425090805516 -0.000347280320795058 -1.87581523507759e-20)
(-0.0343966071673182 -0.000336374642402419 0)
(-0.0303677131426813 -0.000325243205937631 0)
(-0.0264583299518505 -0.000313903763141276 0)
(-0.0226709056646453 -0.000302365233287829 0)
(-0.0190079246966673 -0.000290624103784633 0)
(-0.0154720648075931 -0.000278665788922948 0)
(-0.0120662588133215 -0.000266468234129628 0)
(-0.00879391159156861 -0.000253983087336383 8.41619881058563e-20)
(-0.00565883681991032 -0.000241201049240035 -7.07801859626818e-15)
(-0.00266518652099273 -0.000228152460133416 -1.44020748856912e-14)
(0.000182765364141584 -0.000214758787624631 -7.30620169024709e-15)
(0.00288012666447134 -0.000200907739165509 -1.75659930611596e-19)
(0.00542182912055712 -0.000186597174772576 -1.63063929644084e-22)
(0.00780125522260066 -0.000171700008698543 8.82041864646338e-20)
(0.0100102259385459 -0.000156035370400071 8.86718649030051e-20)
(0.0120375952184514 -0.000139338148145229 -7.37148395182774e-15)
(0.0138708856856985 -0.000121511665343196 -7.48427927555751e-15)
(0.0154921016585244 -0.000102092094278799 8.9836726361898e-20)
(0.0168818632116982 -8.08913531996994e-05 0)
(0.0180099777322143 -5.69713599591775e-05 1.82667748602749e-19)
(0.0188452532471594 -3.01876381919356e-05 -1.84072277309894e-19)
(0.0193357790053755 1.21590396883289e-06 -1.86477081039076e-19)
(0.0194299830750859 3.70192270854711e-05 1.88427641971068e-19)
(0.0190435300158471 8.15788932029344e-05 0)
(0.0180671267662397 0.000135178434445164 0)
(0.0163439505830401 0.000207459817782495 1.98274218783793e-19)
(0.0135913546914277 0.000304474971074589 -3.95593883790856e-22)
(0.00945502034342526 0.000454886422545192 2.10784963901442e-19)
(0.00288997208985472 0.000567892587281207 0)
(4.38081464053861e-05 6.68687792661637e-05 -1.35133586797033e-22)
(0.000397304286625336 5.27736034769474e-05 0)
(0.00189436949167698 0.00036220971900532 5.36096315530585e-17)
(0.00520500812312727 0.00169853808212014 -1.02982782803026e-16)
(0.00977137648524543 0.00412317950694248 -1.92510096901797e-19)
(0.0158567393823069 0.00807635268894536 1.82848869305031e-19)
(0.0239308229665727 0.0139896288675087 1.7364643094357e-19)
(0.033879489503482 0.0219035528082638 -8.44222599259658e-17)
(0.0456004543920106 0.0315946907924467 -1.57444320525118e-19)
(0.0589232414152815 0.0427726077942154 -7.61560908981522e-17)
(0.0739009124997953 0.0551461325190126 0)
(0.0893342675452426 0.0676520916371611 0)
(0.104150692670229 0.0798538770634932 6.85340933545741e-17)
(0.118580586987364 0.092348391367888 6.66037841679137e-17)
(0.133031648441371 0.105609651493702 6.46364683538334e-17)
(0.148112437385675 0.12023345579583 2.76363688926979e-20)
(0.165453872260513 0.137606960938421 -5.95065895797619e-17)
(0.189484085272629 0.160253327556711 -1.11472542469624e-16)
(0.224224315211118 0.187493377652086 0)
(0.270290276878248 0.215759252970281 0)
(0.33429314182139 0.243518513901109 -4.1762478459852e-17)
(0.421174075164058 0.261981969305882 -3.62172975157048e-17)
(0.530354060718818 0.250569162004038 3.18553042417366e-17)
(0.57973723302969 0.169500415851225 -1.46190181819212e-17)
(0.515273156586035 0.0719939789047574 0)
(0.382916198646967 0.0145990814319993 0)
(0.30153239323922 0.000314282214438701 0)
(0.46253183100931 -0.000671479091661485 0)
(0.47205723741959 -0.00998701237581122 1.64162484480936e-18)
(0.415351069729298 -0.0384813617321581 0)
(0.208658331261605 -0.0413513716724153 -1.21107988619889e-14)
(-0.0392948877489606 0.0276725469222186 -1.58956825912867e-14)
(-0.103465023038162 0.0645675833992075 5.72674541721539e-17)
(-0.0793182069814907 0.0563108918881155 0)
(-0.0638258382449421 0.0499101245372529 7.33882451804951e-21)
(-0.0531604289000058 0.0440513592267939 -6.42880775323546e-17)
(-0.0485169032156445 0.0408452970664312 6.8323438396885e-17)
(-0.0451052826425621 0.0374522709501602 6.59236277605486e-23)
(-0.0442674530507959 0.0360506090614403 -3.70353819435163e-20)
(-0.0449530320092033 0.0360350646744001 0)
(-0.0476033134275863 0.0377723902588674 7.9803707737223e-17)
(-0.052448153202756 0.0413723824565616 1.08581343075327e-22)
(-0.059294980555303 0.0466086629428075 -7.73321102343722e-20)
(-0.0672143172279814 0.0524545600701689 7.56596212302954e-20)
(-0.0755208263198508 0.0576566140612244 0)
(-0.0838875777098582 0.0615104587807861 0)
(-0.0917832314721791 0.0632395588088368 0)
(-0.0988500878633295 0.0623042740059849 0)
(-0.105383990478175 0.0588022242440776 -6.45177392758229e-17)
(-0.11164782106925 0.0533808175477591 -6.13366195344516e-17)
(-0.117328850155439 0.0462814671496607 1.1475814781881e-19)
(-0.12240233519211 0.0377088095266457 -1.13207748820473e-19)
(-0.127435491304241 0.0280904384149641 5.40334720388965e-17)
(-0.134070799949427 0.0178904536658972 2.56337633817925e-17)
(-0.148194141681853 0.00855557569171955 9.17311412539943e-20)
(-0.167953684576811 0.00394016849760485 2.01788479792561e-23)
(-0.181877392447411 0.00270687852197968 0)
(-0.189831691037485 0.00175036505035862 0)
(-0.194713971423359 0.00114239999660077 0)
(-0.197203168010744 0.000704049237037612 0)
(-0.197995165733549 0.000369102875281118 0)
(-0.197417504875742 0.000102462327044892 0)
(-0.195746537184141 -0.000117247416600679 0)
(-0.193178412214775 -0.000301305673888356 0)
(-0.18986199325431 -0.000456374520586682 0)
(-0.185916921037278 -0.000587087838962792 2.99069675246618e-20)
(-0.181446716912728 -0.000697324667710513 -2.94965381438249e-20)
(-0.176539387793454 -0.000789759532271144 2.94349903591493e-20)
(-0.171271649872982 -0.000866587711115056 -2.91689414482237e-20)
(-0.165710240770338 -0.000929675518080594 0)
(-0.159913585319128 -0.00098066284718342 0)
(-0.153932712958383 -0.00102101575305785 2.92173893629046e-20)
(-0.147812175668298 -0.00105204892815961 1.24815214281886e-22)
(-0.141590769531834 -0.00107494486076366 -2.92399388796834e-20)
(-0.135302209909217 -0.0010907587966485 0)
(-0.128975731807127 -0.00110043072139193 0)
(-0.122636633031838 -0.00110479081811081 0)
(-0.116306774546558 -0.00110456805234622 0)
(-0.11000501249439 -0.0011004018793158 0)
(-0.1037475999871 -0.00109284680396196 1.52222756824542e-20)
(-0.0975485327073362 -0.00108238569238127 -1.52957344292157e-20)
(-0.0914198436177436 -0.00106943738758146 -7.74087917507759e-21)
(-0.085371883814568 -0.00105436052302703 -2.49483536023006e-23)
(-0.079413553789335 -0.0010374652875721 -2.43989567579933e-23)
(-0.0735525011368574 -0.00101901852232476 7.93967541572912e-21)
(-0.0677953062682193 -0.000999247469451539 0)
(-0.0621476441395362 -0.000978344622964633 0)
(-0.0566144302203806 -0.000956471178428547 0)
(-0.0511999507551408 -0.00093376088297106 0)
(-0.0459079803557073 -0.000910322466271346 8.39776931734375e-21)
(-0.0407418923908369 -0.000886241514621811 2.11938919558454e-23)
(-0.0357047638188055 -0.000861581312776464 -8.57031580922211e-21)
(-0.0307994789705701 -0.000836383761791393 0)
(-0.0260288315745953 -0.000810671987573216 -1.7590510470338e-20)
(-0.0213956206050396 -0.0007844496765957 1.77628963873092e-20)
(-0.0169027502275452 -0.000757693730025643 -1.80203051250857e-20)
(-0.0125533891794892 -0.000730355590003769 -3.87772728401046e-23)
(-0.00835106318831823 -0.000702365541154674 -1.85107845219013e-20)
(-0.00429984432020515 -0.000673625141824569 3.73385981478515e-20)
(-0.000404204286313818 -0.000644050880804388 0)
(0.00333110047954116 -0.000613575546273661 0)
(0.006901681869729 -0.00058212535622911 3.83703135852969e-20)
(0.0103022118262277 -0.000549567120302271 7.25914031445221e-23)
(0.0135260481435918 -0.000515772964449121 -3.87972636970999e-20)
(0.0165648167886712 -0.000480429184660989 -3.91498524790177e-20)
(0.0194085951380491 -0.00044314786882902 3.93835244234538e-20)
(0.0220442525226892 -0.00040336153553754 -3.9787331556534e-20)
(0.0244567139687719 -0.000360555286015246 -7.11322392549985e-23)
(0.0266250297860671 -0.000313710130243669 4.04833541089642e-20)
(0.0285257624216314 -0.000262016244328693 8.20057224491448e-20)
(0.0301242212910805 -0.000203551115169647 1.45590759086042e-22)
(0.0313825234940768 -0.00013712991791934 -8.40126675642352e-20)
(0.0322414167191133 -5.9091644123897e-05 0)
(0.0326363233164908 3.19410677920613e-05 -8.69670443697747e-20)
(0.0324667187619842 0.000144575003897291 8.8343534997783e-20)
(0.0316060274283998 0.000282739331423928 9.03390417885404e-20)
(0.0298700761400045 0.000467252541319341 -9.24113888646758e-20)
(0.0269522310647252 0.000716644197020868 0)
(0.0224492045560464 0.0010922083817814 0)
(0.0153811367121823 0.00162406740635389 3.34072217729653e-18)
(0.0120216683051797 0.00172950696823677 2.67578084942454e-17)
(0.0123232083032378 0.00252403016396537 1.02316626229776e-19)
(0.0142376354282497 0.00376088319579634 -2.51782292003381e-17)
(0.0182581508182836 0.00620235189218666 -7.88100191650534e-22)
(0.0238929495384847 0.00996020740341686 0)
(0.0313899487341021 0.0155235142297043 0)
(0.0412416448250411 0.0233160793488162 8.37139850290984e-20)
(0.053404076504328 0.0334097478432612 -8.01319515041948e-20)
(0.0677955739300151 0.0455681981588146 7.38845562465272e-20)
(0.0842643359751561 0.0595066584706364 3.81074370428835e-17)
(0.102851048824249 0.0748923772417821 -3.70330261122163e-17)
(0.12247210285118 0.0908165652916322 0)
(0.142001128078653 0.106933648486428 -3.50254762116537e-20)
(0.161561004608592 0.12386021489315 3.4888790369404e-20)
(0.181575328967106 0.142125129083668 0)
(0.202719003066825 0.162396727209071 3.50699659518351e-17)
(0.226664360310908 0.186004033285996 0)
(0.257971884584039 0.215000420739281 3.2613383348886e-17)
(0.301525477273873 0.248142366989969 -3.66111935779723e-21)
(0.358313248724587 0.281116380920316 3.45272734749136e-21)
(0.434114569288023 0.310134611357668 2.45966031029726e-17)
(0.532808706714647 0.323935677227604 2.09856744456167e-17)
(0.654271002815165 0.301590901096275 -3.64886848225413e-17)
(0.732652220300284 0.210873569082389 8.73582439341394e-18)
(0.70629303465802 0.100638681751668 0)
(0.591521781369374 0.0268697052420686 1.28403084136784e-18)
(0.493166635535728 0.00352519958390439 -7.25110101943948e-22)
(0.564869573603151 0.000345813684900672 4.92225088977279e-22)
(0.56375044443201 -0.0111973751210541 -4.94869498760447e-22)
(0.519185021767076 -0.0442920280293036 4.2506163232902e-18)
(0.324717048319373 -0.0596025478610391 0)
(0.0214326361100015 0.0107709442819125 -3.42132183435812e-17)
(-0.107751763550906 0.0693472413873963 -4.76045236669651e-17)
(-0.0944651177401516 0.0659429759060244 0)
(-0.0791107569267032 0.0609192472934406 0)
(-0.0680197846698021 0.0557808439874381 5.65251425955383e-17)
(-0.0631721955622233 0.0527968069319124 -6.13276233347378e-17)
(-0.0598062893832029 0.0494235416508306 6.56108772128395e-17)
(-0.0593323307649365 0.0482320735105291 -3.32483881300822e-20)
(-0.0607691240080735 0.0487667107084821 0)
(-0.0645488962814365 0.0514289298186873 -6.87222608409257e-17)
(-0.0707574386599029 0.0561765443485113 -6.66295785401245e-17)
(-0.0788805868384961 0.0624753429190377 6.18631935691897e-20)
(-0.0877281713104201 0.0689846785499049 -5.95226357038463e-17)
(-0.0965329727083938 0.0742271158180031 -5.51275818662277e-17)
(-0.104941089785502 0.0774518242186349 5.10001692101973e-17)
(-0.112560888574998 0.0780151325970564 -4.69121822108711e-17)
(-0.119283409268173 0.0756135356039125 0)
(-0.125556662025122 0.070490009861752 4.00670444116262e-17)
(-0.131634414267691 0.0633718857252998 7.29288852818807e-20)
(-0.137331463018648 0.054608205065485 -3.50443793777494e-17)
(-0.142806062123762 0.0444732922618113 -1.65247055362806e-17)
(-0.148729285122515 0.0334284819815757 -1.5914667578128e-17)
(-0.156514317608835 0.0218815422568621 -7.41409225338172e-18)
(-0.170227385752844 0.011099889376302 1.70339917730835e-18)
(-0.18663400067858 0.00554363616415637 -1.16396865092755e-23)
(-0.197534312039735 0.00370055903928082 -4.38123713769615e-20)
(-0.20373386411442 0.00232663378613709 -4.11237129071762e-20)
(-0.207308848972562 0.00144984345675474 0)
(-0.20877221717309 0.000811256851732131 0)
(-0.208700066513984 0.000323502998390055 -3.65565391809895e-20)
(-0.207370154530126 -6.56743510715869e-05 3.53900703524055e-20)
(-0.20503140684013 -0.00038476551437777 -3.46002541288811e-20)
(-0.201848581321503 -0.000651069831146163 3.36696021858888e-20)
(-0.197964682532676 -0.000875103073207116 0)
(-0.193489432853518 -0.0010635829111632 0)
(-0.188519620013186 -0.00122195310151425 0)
(-0.183137965685716 -0.00135421848336974 0)
(-0.177416943784406 -0.00146364782345602 1.58861375652146e-20)
(-0.171419848736863 -0.00155302608868665 -1.57314000762191e-20)
(-0.165202246342517 -0.00162478607964045 -1.57466816059466e-20)
(-0.15881279129282 -0.00168109275604237 3.13615879052942e-20)
(-0.15229405782261 -0.00172387690162295 -1.56375782241199e-20)
(-0.145683203465139 -0.00175486630130834 0)
(-0.139012594683982 -0.00177559665646369 0)
(-0.132310365888617 -0.00178743080980483 0)
(-0.125600926970761 -0.00179156917195857 0)
(-0.118905430411661 -0.00178906401467612 -7.94725969647475e-21)
(-0.112242175482205 -0.00178083649204207 -1.79271974499316e-15)
(-0.105626984551416 -0.00176768528118146 -1.81039819375897e-15)
(-0.0990735258535011 -0.00175030541864184 -8.04757071015322e-21)
(-0.0925935913574409 -0.0017292993070009 -8.12649756200107e-21)
(-0.0861973600000508 -0.00170518341711829 8.15570384589438e-21)
(-0.0798936150338805 -0.00167840441150379 0)
(-0.0736899324570405 -0.00164934632923305 0)
(-0.067592857760372 -0.00161833613287218 0)
(-0.0616080608201741 -0.00158565053867818 0)
(-0.0557404756440868 -0.0015515210364758 0)
(-0.0499944263877293 -0.00151613906257412 0)
(-0.0443737425862472 -0.00147965936723431 0)
(-0.0388818679109274 -0.00144220251623064 0)
(-0.0335219638099315 -0.00140385603446828 0)
(-0.0282970128008725 -0.00136467529841963 0)
(-0.0232099217439754 -0.00132468652336711 -8.99547146501325e-21)
(-0.0182636218682531 -0.00128388603626885 2.05032921695835e-15)
(-0.0134611741835549 -0.00124223008867916 2.06220049239879e-15)
(-0.00880591906992553 -0.00119963518291234 -9.25456530214661e-21)
(-0.00430159238568102 -0.00115598352197303 1.87454933528907e-20)
(4.75258254261397e-05 -0.00111112613570197 -1.88904133164937e-20)
(0.0042371371446928 -0.00106495130121433 1.90763507695848e-20)
(0.00826298837459092 -0.00101740056204075 -1.91705048193426e-20)
(0.0121204646161793 -0.000968395302573061 0)
(0.0158037442663821 -0.000917697631741555 1.94941951263554e-20)
(0.019305791631489 -0.000864974028712751 -1.96138250241107e-20)
(0.0226177819896905 -0.000809694592455581 0)
(0.0257293425562857 -0.000751237075751629 0)
(0.0286269833182845 -0.000688738790747556 0)
(0.0312950137382251 -0.000621299041405958 0)
(0.0337120981826257 -0.000547407186161059 0)
(0.0358538814156563 -0.000465597183261076 0)
(0.0376853888230467 -0.000373067068549462 0)
(0.0391673437529147 -0.000267494090531912 -4.28549013522007e-20)
(0.0402405026390448 -0.000143545631568538 8.70107491671658e-20)
(0.0408374800995252 2.09476008194796e-06 -8.85662812786494e-20)
(0.0408563416889889 0.000181603622787037 4.50413743702601e-20)
(0.0401716703302857 0.000402707523528022 0)
(0.0386023132982845 0.000695606085837667 0)
(0.0358637581016571 0.0010892440166709 0)
(0.0315998270486799 0.00167093301256024 -5.08793944665112e-20)
(0.0249760213931649 0.00251419118405175 -3.33742410318683e-18)
(0.02158784037625 0.00308672083499225 -6.73318921668033e-18)
(0.0218209762190329 0.00444712298907959 1.31689249643387e-17)
(0.0238759511018275 0.00632003577656584 4.96713257255013e-20)
(0.0281235174842894 0.00943945630910568 4.88600322195147e-17)
(0.0341393180252466 0.0139444940676357 -4.60532676191126e-20)
(0.0421497084965669 0.0203129743473315 4.42060850484036e-20)
(0.0526058643689615 0.0289181092506543 2.17908913463042e-17)
(0.0655102654746116 0.0398445531782252 -2.09309488515891e-17)
(0.0807922790642574 0.0528645674798454 -2.02459160390743e-17)
(0.0983197479491325 0.0677165588095959 -3.82588059346727e-20)
(0.118098727254029 0.0840634501698424 4.29891527473884e-20)
(0.139176001996645 0.101171918348372 -1.84062818594292e-20)
(0.16050359518922 0.118806516601117 3.66931989549736e-20)
(0.182176582887175 0.137567852916695 -1.88094546151268e-17)
(0.204617018223697 0.157984126632453 1.83234059765157e-20)
(0.228532553086313 0.180732394398906 -1.88081257726369e-17)
(0.25554966347861 0.206980005813224 -8.98404613671458e-21)
(0.289914513388762 0.238161092335938 8.74610728767917e-21)
(0.336546506827076 0.272575559608605 2.01123210245642e-21)
(0.396553371686586 0.305713683757549 -1.90611984839189e-21)
(0.474887536313408 0.332679151306368 0)
(0.574500250836139 0.341563160098634 0)
(0.694846555747562 0.312832949899959 -1.05626728222128e-20)
(0.7810352517471 0.220767319864302 -4.98271366961129e-18)
(0.779635013292924 0.111252776522645 0)
(0.696719456357842 0.0341333238969952 -7.84787443398672e-19)
(0.606121214632998 0.0068827093029607 0)
(0.626241201307783 0.00171030349748297 0)
(0.618914626540982 -0.0114541773168336 6.74345671983075e-19)
(0.582727854576696 -0.0459155750957621 4.89764076282136e-21)
(0.416143887622442 -0.0704441508606247 1.88690275333973e-21)
(0.0997978807263492 -0.0106291246219213 2.3827819335081e-17)
(-0.090527278187647 0.0640022063186785 3.46010441710219e-17)
(-0.099087748439863 0.0685924179680538 0)
(-0.087103285401804 0.0661690129382479 0)
(-0.0773797995677675 0.0629059963070742 4.29240836352114e-17)
(-0.0733951040827635 0.0610043029410706 4.80727525348055e-17)
(-0.0707903444754693 0.0583180618258954 -5.20928389830255e-17)
(-0.0709328011158522 0.057640185311876 0)
(-0.0730133736154954 0.0587256625787603 -5.42629625696005e-17)
(-0.0773923826468757 0.0619635167212973 1.3630740849427e-22)
(-0.0839784783818358 0.0671268265445151 -4.96166271340964e-17)
(-0.0920616877973775 0.0734716017994434 4.56576489560208e-17)
(-0.100461432825995 0.0795970881049908 3.46611480957235e-23)
(-0.108576534493336 0.0840920629349002 3.73605147319223e-17)
(-0.116188421805426 0.086331988809246 -3.36460633058437e-17)
(-0.123095772368139 0.0858506256195479 6.22057307470871e-20)
(-0.129328922415123 0.0824801899467331 -5.41077440749992e-20)
(-0.135335320420801 0.0764666653354758 0)
(-0.141299827186611 0.068499439996236 2.36855742513546e-17)
(-0.14708251546211 0.0589511470164032 2.22289898349212e-17)
(-0.152879118670944 0.0481118590602576 0)
(-0.159287073556052 0.0364380638715476 -1.00633629442046e-17)