/*--------------------------------*- C++ -*----------------------------------*\
  =========                 |
  \\      /  F ield         | OpenFOAM: The Open Source CFD Toolbox
   \\    /   O peration     | Website:  https://openfoam.org
    \\  /    A nd           | Version:  7
     \\/     M anipulation  |
\*---------------------------------------------------------------------------*/
FoamFile
{
    version     2.0;
    format      ascii;
    class       volVectorField;
    location    "3000";
    object      wallShearStress;
}
// * * * * * * * * * * * * * * * * * * * * * * * * * * * * * * * * * * * * * //

dimensions      [0 2 -2 0 0 0 0];

internalField   uniform (0 0 0);

boundaryField
{
    bottomWall
    {
        type            calculated;
        value           nonuniform List<vector> 
120
(
(-0.00452133074030833 2.80857608363178e-05 5.80785811379818e-23)
(-0.00526837111523849 0.00014276624939056 1.19434827714312e-19)
(-0.00372655740396735 0.000451444375496783 7.52316384526264e-37)
(-0.000317562173150616 0.000192851076203272 1.02400030596402e-18)
(0.00180691278743652 -0.000689157686912327 1.25873245922817e-22)
(0.00171180018226641 -0.000933284912690227 3.88615290514297e-22)
(0.00113361575121529 -0.000741422248014667 2.22241217646751e-18)
(0.000847501740278395 -0.000615795223884802 -2.24615601425928e-18)
(0.000643808164162229 -0.000502108160132773 6.35320804649796e-16)
(0.000545998131748095 -0.000435110447022874 6.36488870901764e-16)
(0.000460013177399753 -0.000366573226314195 -5.56196974666607e-22)
(0.000415474007136864 -0.000327757365188087 1.10967135179294e-21)
(0.000388985747322653 -0.00030515688633942 -1.11099019353191e-21)
(0.000383972684642478 -0.000300456916232532 2.27055919912515e-18)
(0.000401629540443085 -0.000313481596785537 2.26869674850468e-18)
(0.000442094969182023 -0.00034280016335293 2.20666266524833e-21)
(0.000494248837947248 -0.000378360168280062 2.24460388886105e-18)
(0.000547397920866214 -0.00040790276524291 -4.47310517054539e-18)
(0.000599092125902 -0.000427004026364056 2.22028804584545e-18)
(0.000642995651079814 -0.000429894940202571 2.21957993529566e-18)
(0.000671128664551799 -0.000411819184950292 -2.20600638049684e-18)
(0.000686492212048498 -0.00037570993929581 2.19135669380391e-18)
(0.000699472872717576 -0.000330976463075205 6.10856154062667e-24)
(0.000707715275908676 -0.000279619276902697 -2.15785054438971e-18)
(0.000709026565347669 -0.000222230318112108 4.51389830715758e-35)
(0.000705715498927718 -0.000160186838245766 9.62964972193618e-35)
(0.000674821510564137 -9.30507065544356e-05 1.5470727663991e-16)
(0.000741581487706321 -3.93243867289903e-05 1.55056286522891e-16)
(0.000992107804141283 -1.66391344748383e-05 -4.84028130443224e-25)
(0.00122026976357823 -1.52230785406492e-05 -1.41176295708334e-32)
(0.00136545470459462 -1.35532143718179e-05 -0)
(0.00147214743087159 -1.2524792934285e-05 1.62811745512781e-16)
(0.00154714967419779 -1.17683159916718e-05 1.64055053135071e-16)
(0.00160007077029127 -1.11014022714112e-05 0)
(0.00163478337112201 -1.04780423745095e-05 -2.11989537248333e-53)
(0.00165486307820134 -9.84373596172131e-06 -1.37024457837528e-51)
(0.001662311815769 -9.18448110151587e-06 -0)
(0.00165892965249135 -8.5105299024734e-06 1.88318207234336e-21)
(0.00164627583959453 -7.83918624816313e-06 -1.56165934381189e-16)
(0.00162566178123834 -7.17342986938648e-06 -1.58464901247845e-16)
(0.00159822832325135 -6.51972153790806e-06 1.89785881236431e-21)
(0.00156500278270826 -5.88384127798697e-06 1.91765512492338e-21)
(0.00152690268480206 -5.27061336015625e-06 -1.92123106427023e-21)
(0.00148475276418094 -4.68367105776635e-06 1.94329847604518e-21)
(0.0014392893329228 -4.12550945320289e-06 -1.94904281881839e-21)
(0.00139116724359909 -3.59761710318396e-06 -0)
(0.00134096510762375 -3.10061600763066e-06 1.71222199743012e-16)
(0.00128919125115247 -2.63446582302494e-06 1.73745217471454e-16)
(0.0012362897997243 -2.19859921904864e-06 2.0173314570874e-21)
(0.00118264668035332 -1.79207415735102e-06 -1.01528086325591e-21)
(0.00112859591609485 -1.41370158754044e-06 1.02787653686002e-21)
(0.00107442526554994 -1.06210091849426e-06 -2.06956706152855e-21)
(0.00102038179417116 -7.35814945725826e-07 1.73560740426564e-16)
(0.000966677059400065 -4.33330819231832e-07 1.75655702567928e-16)
(0.000913491357256182 -1.53110701720218e-07 5.29935661622962e-22)
(0.000860978055151336 1.06344113116159e-07 -3.1047771706995e-41)
(0.000809267314472814 3.46503478340907e-07 -3.14210710320135e-32)
(0.000758469096627497 5.68800432103132e-07 2.72543514461139e-22)
(0.000708676043907351 7.74611189184287e-07 -4.11342170042716e-22)
(0.000659965992373437 9.65253894244103e-07 1.38091734958279e-22)
(0.000612404252840681 1.1419802213405e-06 0)
(0.000566045617417292 1.30598070248698e-06 -2.81317344262333e-22)
(0.000520936090172817 1.45838363704426e-06 2.82734761130151e-22)
(0.000477114473429394 1.60025828153599e-06 -3.3205633249469e-32)
(0.00043461384334134 1.73261267790424e-06 -0)
(0.000393462951558618 1.85640025171676e-06 5.79507449646994e-22)
(0.000353687474684898 1.97253356746122e-06 -5.82252734374565e-22)
(0.000315311082678068 2.08187255543108e-06 -0)
(0.000278356582361015 2.18520375212439e-06 0)
(0.000242848044045804 2.28326624680303e-06 0)
(0.000208811167731914 2.3767823055145e-06 0)
(0.000176276674796866 2.46618729003706e-06 0)
(0.000145280891738787 2.55214637066508e-06 -2.02599455017719e-16)
(0.000115864159204657 2.63553795541687e-06 -4.06365330412749e-16)
(8.80659562034789e-05 2.71909171246842e-06 -2.03630248014788e-16)
(6.19319855345151e-05 2.80512525785696e-06 4.93441642761692e-21)
(3.75097314287457e-05 2.89191128386671e-06 -2.4784444378562e-21)
(1.48621132333388e-05 2.97738846608864e-06 2.4962131822481e-21)
(-5.93438977643836e-06 3.06052493360753e-06 -2.50074959719068e-21)
(-2.4770656932924e-05 3.14061475925684e-06 -2.09838201938447e-16)
(-4.1532479177082e-05 3.22133190860908e-06 -2.08032910930503e-16)
(-5.60398019796098e-05 3.302245568972e-06 2.51178049789331e-21)
(-6.81122428334831e-05 3.3860101722836e-06 -2.52090322255703e-21)
(-7.7439850795763e-05 3.4690082734227e-06 5.04870879806528e-21)
(-8.37366641327818e-05 3.557187379825e-06 -2.52890597647507e-21)
(-8.64679945969284e-05 3.6426506982182e-06 5.08303628680924e-21)
(-8.51760054726001e-05 3.7367047157724e-06 -1.01921843002164e-20)
(-7.89857853503217e-05 3.81720431006672e-06 5.1119669235633e-21)
(-6.68678696264109e-05 3.90808532575324e-06 5.14617616897514e-21)
(-4.73343015132144e-05 3.96114049193139e-06 -1.03437166953749e-20)
(-1.75753999853959e-05 3.98901841768786e-06 2.46338589301324e-26)
(2.53579457791799e-05 3.74566171772584e-06 6.37908356102728e-25)
(9.7504772832352e-05 5.80818472222078e-06 0)
(0.000129217303091338 1.6132551425036e-05 -5.22591626937797e-21)
(0.000128495015309172 2.21264207627516e-05 1.34875186510727e-18)
(0.000120428156481933 2.60068846614326e-05 1.30498060992712e-23)
(9.0373627718253e-05 1.91412055537654e-05 2.68654847263494e-18)
(4.44386312490608e-05 7.08846546766803e-08 2.72208166620091e-18)
(-2.53070527766639e-05 -3.84593166913527e-05 -2.72538979246789e-18)
(-0.000130389272277217 -0.000105229192522758 2.71629661577114e-18)
(-0.000273541684993648 -0.000204550061323171 -2.70407566615033e-18)
(-0.000456077288933184 -0.000336510038644259 -2.69013106809665e-18)
(-0.000677632746759224 -0.00049938751613257 -1.29398418138517e-34)
(-0.000940953352063614 -0.000690682871052464 -6.01853107621011e-36)
(-0.00121993121481997 -0.000892050573478874 2.64645296019982e-18)
(-0.001499090340124 -0.00109861494638077 2.63626298091782e-18)
(-0.00179524593654787 -0.00132539023359089 2.62727952735298e-18)
(-0.00212242772252729 -0.0015848935219558 2.61743296954996e-18)
(-0.00250170865162155 -0.00189442982012592 2.60510830744973e-18)
(-0.00298707369633439 -0.00229266485336065 -2.58203871544059e-18)
(-0.00370482499958789 -0.00284509269583622 -2.53882348859618e-18)
(-0.00472287318992148 -0.00352609327455359 2.47073680527539e-18)
(-0.00601253212993955 -0.00424087106479034 -2.36852595851397e-18)
(-0.00775497654626875 -0.00494880825811376 -2.22305578163972e-18)
(-0.00998524397409067 -0.00540622225179799 2.02240069021772e-18)
(-0.012368910583291 -0.0050543257150129 4.51389830715758e-36)
(-0.0119201161415154 -0.00301726655947916 -7.97947097708713e-19)
(-0.00872000472784254 -0.0010408229637137 1.88079096131566e-37)
(-0.00521854155205437 -0.000137730982156816 1.07096526932901e-19)
(-0.00392309744494318 2.20893301845961e-05 0)
)
;
    }
    topWall
    {
        type            calculated;
        value           nonuniform List<vector> 
120
(
(-0.00486514261938391 -1.2053816005026e-06 0)
(-0.00485698123636146 -1.09332539662204e-06 0)
(-0.0048447332934603 -1.04781321607576e-06 0)
(-0.00482995899987382 -1.00823909740999e-06 0)
(-0.00481261569365903 -9.6424819862894e-07 0)
(-0.0047928317023309 -9.28717019221979e-07 0)
(-0.00477094323152251 -9.0049986490875e-07 0)
(-0.00474723214590083 -8.78586110045917e-07 0)
(-0.00472197185210385 -8.6251799122501e-07 0)
(-0.00469542111411914 -8.51380176386548e-07 0)
(-0.00466781101917569 -8.44223557176653e-07 0)
(-0.00463934448234154 -8.40173707520241e-07 0)
(-0.00461019679007597 -8.38438744850486e-07 0)
(-0.00458051682283492 -8.38306035999727e-07 0)
(-0.00455042847629561 -8.39144780822542e-07 0)
(-0.00452003294174037 -8.40434267598494e-07 0)
(-0.00448941137435774 -8.41748462163049e-07 0)
(-0.00445862786622711 -8.42769695826174e-07 0)
(-0.00442773237536325 -8.43263729298882e-07 0)
(-0.00439676368858533 -8.43090580149553e-07 0)
(-0.00436575212762636 -8.4217168003877e-07 0)
(-0.00433472200674802 -8.40504683851217e-07 0)
(-0.00430369408476892 -8.38124793612211e-07 0)
(-0.00427268673254194 -8.35125470730894e-07 0)
(-0.00424171999530324 -8.31657225763815e-07 0)
(-0.00421080970033708 -8.27567851899291e-07 0)
(-0.00417998035697787 -8.23604944290078e-07 0)
(-0.00414925439614031 -8.19157292532244e-07 0)
(-0.00411865860681802 -8.15120394739751e-07 0)
(-0.00408822192668294 -8.10914240086281e-07 0)
(-0.00405797860078975 -8.07423906417157e-07 0)
(-0.00402796070035171 -8.03817847946766e-07 0)
(-0.00399820933815105 -8.01401336569058e-07 0)
(-0.00396876093504378 -7.98774517076227e-07 0)
(-0.00393965830769928 -7.97711244240899e-07 0)
(-0.00391094446410483 -7.96468793364167e-07 0)
(-0.00388265648833139 -7.96737199235659e-07 0)
(-0.00385484737685507 -7.97271484999918e-07 0)
(-0.00382754062585308 -7.98786273721294e-07 0)
(-0.00380080896793643 -8.0125450820232e-07 0)
(-0.00377463293124789 -8.03810551010578e-07 0)
(-0.00374916791019008 -8.09010142700232e-07 0)
(-0.00372423603988873 -8.11441499272903e-07 0)
(-0.00370028245051449 -8.3198699423969e-07 0)
(-0.00367728473189419 -8.35423903469683e-07 0)
(-0.00365476290215072 -8.1870255282441e-07 0)
(-0.00363262461571234 -8.34620254808309e-07 0)
(-0.00361165202889365 -8.5005952286483e-07 0)
(-0.00359164124938389 -8.58968898690439e-07 0)
(-0.00357251390431817 -8.68752344388675e-07 0)
(-0.00355430602583371 -8.79022218856221e-07 0)
(-0.00353702691944467 -8.897163893369e-07 0)
(-0.00352069283586613 -9.01054253707114e-07 0)
(-0.00350532287451961 -9.13032399644473e-07 0)
(-0.0034909346502109 -9.25658100946748e-07 0)
(-0.0034775455168156 -9.38954118115667e-07 0)
(-0.00346517249946437 -9.52935505197354e-07 0)
(-0.00345383240566214 -9.67628900408252e-07 0)
(-0.00344354207681833 -9.83061194274086e-07 0)
(-0.00343431860252633 -9.99268400835273e-07 0)
(-0.00342617951778401 -1.01628688185741e-06 0)
(-0.0034191430083516 -1.03416103091034e-06 0)
(-0.00341322808007198 -1.05293459790897e-06 0)
(-0.0034084547147469 -1.07265806465058e-06 0)
(-0.00340484405968934 -1.09338197461169e-06 0)
(-0.00340241849112394 -1.11516689079519e-06 0)
(-0.00340120228247438 -1.13810290348741e-06 0)
(-0.00340122196384534 -1.16218560610858e-06 0)
(-0.00340250036980952 -1.18786250132362e-06 0)
(-0.00340509300447814 -1.21532533191825e-06 0)
(-0.00340903335976465 -1.244088236924e-06 0)
(-0.00341435045982803 -1.2741493891618e-06 0)
(-0.00342107317586171 -1.30556830270151e-06 0)
(-0.00342923309067869 -1.33843566004918e-06 0)
(-0.00343886412422427 -1.37280342718414e-06 0)
(-0.00345000142940683 -1.40870397729907e-06 0)
(-0.0034626809351101 -1.44615804431727e-06 0)
(-0.00347693893718376 -1.48517348625877e-06 0)
(-0.00349281159622893 -1.52574365590653e-06 0)
(-0.00351033445289084 -1.56785088186666e-06 0)
(-0.00352954202550441 -1.61146653216961e-06 0)
(-0.00355046740629485 -1.65654593039858e-06 0)
(-0.00357314154958046 -1.70301734599235e-06 0)
(-0.0035975923857717 -1.7507836956938e-06 0)
(-0.00362384389606897 -1.79971846743345e-06 0)
(-0.00365191507819383 -1.84966386230954e-06 0)
(-0.00368181879678286 -1.90042552549572e-06 0)
(-0.00371356048917514 -1.95177017080466e-06 0)
(-0.00374713679556482 -2.00342085593226e-06 0)
(-0.00378253394590018 -2.05505214959667e-06 0)
(-0.0038197262025455 -2.10628850891009e-06 0)
(-0.00385867379707875 -2.15669543425174e-06 0)
(-0.00389932149579803 -2.20578912939413e-06 0)
(-0.00394159568781674 -2.2530119955879e-06 0)
(-0.00398540418116893 -2.29778028674955e-06 0)
(-0.00403063078151218 -2.33939483846935e-06 0)
(-0.00407714006790871 -2.37722175403601e-06 0)
(-0.00412476276215163 -2.41035894931553e-06 0)
(-0.00417331927702216 -2.43830112923022e-06 0)
(-0.00422256973674068 -2.4596901150709e-06 0)
(-0.00427230898734819 -2.47478469999999e-06 0)
(-0.00432217877339513 -2.4807418280622e-06 0)
(-0.00437203993144652 -2.48113980554929e-06 0)
(-0.00442125762308335 -2.46690074874004e-06 0)
(-0.00447004434852032 -2.46704642569218e-06 0)
(-0.00451792018924419 -2.42980392032047e-06 0)
(-0.00456378158180512 -2.35876490382247e-06 0)
(-0.00460719611367397 -2.3192856823531e-06 0)
(-0.00464869570329976 -2.26769086188168e-06 0)
(-0.00468762400956058 -2.19729850865488e-06 0)
(-0.00472347502119297 -2.11839961601775e-06 0)
(-0.0047559313825605 -2.03191814324652e-06 0)
(-0.00478467518741154 -1.93891093388828e-06 0)
(-0.00480946783776866 -1.84167877500852e-06 0)
(-0.00483008933496076 -1.74121106305329e-06 0)
(-0.00484646726169168 -1.6409287422515e-06 0)
(-0.00485843034517337 -1.53978080189216e-06 0)
(-0.00486620224382144 -1.44581014601618e-06 0)
(-0.00486946453923342 -1.3488950500743e-06 0)
(-0.00486907647301134 -1.29069822350223e-06 0)
)
;
    }
    inlet_half0
    {
        type            cyclic;
    }
    inlet_half1
    {
        type            cyclic;
    }
    outlet_half0
    {
        type            cyclic;
    }
    outlet_half1
    {
        type            cyclic;
    }
    sideRight_half0
    {
        type            empty;
    }
    sideRight_half1
    {
        type            empty;
    }
    sideLeft_half0
    {
        type            empty;
    }
    sideLeft_half1
    {
        type            empty;
    }
}


// ************************************************************************* //
