1.00000000000453e-06 	1.00195556483898 	0 	0.065118362573215 	-0.000108630357663061 	-1.60010350955774e-22
1.00000000000453e-06 	1.00593833258374 	0 	0.212171627467766 	0.000214010464704497 	-2.83173164674249e-22
1.00000000000453e-06 	1.01006700077429 	0 	0.370299444235005 	0.00177715659039392 	-1.55789754250178e-22
1.00000000000453e-06 	1.0143469141712 	0 	0.499745052768762 	0.0043125350473219 	5.80179914710117e-23
1.00000000000453e-06 	1.01878361332929 	0 	0.58586945639242 	0.00711141196290955 	4.80107636891858e-23
1.00000000000453e-06 	1.02338284177015 	-3.46944695195361e-18 	0.638986445047182 	0.0098119114578765 	-8.51756541795779e-23
1.00000000000453e-06 	1.02815055341735 	-6.93889390390723e-18 	0.672299363488598 	0.0123088252700374 	-2.55801281158971e-24
1.00000000000453e-06 	1.03309292030413 	-6.93889390390723e-18 	0.694384319418211 	0.0145906768663606 	8.00491070631927e-23
1.00000000000453e-06 	1.03821634056339 	-6.93889390390723e-18 	0.710060039902163 	0.0166875776214484 	9.74137124265731e-24
1.00000000000453e-06 	1.04352744671036 	-1.04083408558608e-17 	0.721940306382581 	0.0186342529542328 	-8.59289494044218e-23
1.00000000000453e-06 	1.04903311422874 	-1.04083408558608e-17 	0.731469382130227 	0.0204599775912378 	-8.10028863107497e-23
1.00000000000453e-06 	1.05474047047132 	-6.93889390390723e-18 	0.739479383886173 	0.0221879025455079 	-2.53576153411977e-23
1.00000000000453e-06 	1.06065690388671 	-3.46944695195361e-18 	0.746472686416149 	0.023835935451847 	3.13633538471256e-23
1.00000000000453e-06 	1.06679007358401 	-3.46944695195361e-18 	0.75276622626709 	0.0254178088384718 	6.27293278381514e-23
1.00000000000453e-06 	1.07314791924792 	-6.93889390390723e-18 	0.758567912908199 	0.026944017611692 	4.52056215017218e-23
1.00000000000453e-06 	1.07973867141705 	-3.46944695195361e-18 	0.764018871601352 	0.0284225405275921 	6.77844584293311e-16
1.00000000000453e-06 	1.08657086213875 	0 	0.769217813104489 	0.0298593701917547 	7.2458522089491e-16
1.00000000000453e-06 	1.09365333601424 	0 	0.774235654696615 	0.0312589001700889 	-5.84333183730704e-16
1.00000000000453e-06 	1.10099526164836 	3.46944695195361e-18 	0.779124607447146 	0.0326242088588978 	-6.31073830826509e-16
1.00000000000453e-06 	1.10860614351884 	6.93889390390723e-18 	0.78392401061355 	0.0339572700663953 	-1.73035523245658e-23
1.00000000000453e-06 	1.11649583428022 	3.46944695195361e-18 	0.788664193773217 	0.0352591146239294 	-5.89091664515083e-23
1.00000000000453e-06 	1.12467454751866 	6.93889390390723e-18 	0.793369106064271 	0.0365299603143032 	-3.97140334722451e-23
1.00000000000453e-06 	1.13315287097387 	1.73472347597681e-17 	0.798058151532371 	0.0377693212063787 	1.75943436993929e-23
1.00000000000453e-06 	1.1419417802455 	2.08166817117217e-17 	0.802747498882419 	0.0389761039343899 	2.64157470898564e-24
1.00000000000453e-06 	1.15105265300152 	1.38777878078145e-17 	0.807451033846779 	0.0401486959977943 	-4.81468159712983e-23
1.00000000000453e-06 	1.1604972837072 	1.04083408558608e-17 	0.812181061998988 	0.0412850494393531 	-4.92565805696616e-23
1.00000000000453e-06 	1.17028789889366 	1.38777878078145e-17 	0.816948832451029 	0.0423827620770544 	-1.67865287810125e-23
1.00000000000453e-06 	1.1804371729856 	1.73472347597681e-17 	0.821764929132958 	0.043439157555859 	0
1.00000000000453e-06 	1.19095824470904 	2.42861286636753e-17 	0.826639560995489 	0.0444513646907806 	-2.96641166829224e-23
1.00000000000453e-06 	1.20186473410003 	2.42861286636753e-17 	0.831582772453969 	0.0454163957813457 	-5.93282019874155e-23
1.00000000000453e-06 	1.21317076013637 	2.08166817117217e-17 	0.836604588908464 	0.0463312227228116 	-2.96640852778019e-23
1.00000000000453e-06 	1.22489095901542 	2.08166817117217e-17 	0.841715108229525 	0.0471928489084526 	0
1.00000000000453e-06 	1.23704050310128 	2.08166817117217e-17 	0.846924546079827 	0.0479983750915501 	-1.42762273456788e-24
1.00000000000453e-06 	1.24963512056619 	2.42861286636753e-17 	0.852243237613205 	0.0487450590060868 	-2.86167554251843e-24
1.00000000000453e-06 	1.26269111575139 	2.77555756156289e-17 	0.857681592850403 	0.0494303685707594 	-1.42764554643386e-24
1.00000000000453e-06 	1.27622539027388 	2.77555756156289e-17 	0.863250006915525 	0.0500520278137018 	0
1.00000000000453e-06 	1.29025546490643 	2.77555756156289e-17 	0.868958733948353 	0.0506080577557913 	0
1.00000000000453e-06 	1.30479950225895 	2.77555756156289e-17 	0.874817730931945 	0.0510968164522796 	-6.47292807257458e-23
1.00000000000453e-06 	1.31987633029101 	3.12250225675825e-17 	0.880836469504212 	0.0515170389898439 	-6.1982959101532e-23
1.00000000000453e-06 	1.33550546668544 	3.81639164714898e-17 	0.887023709898942 	0.051867874015544 	1.3887928396248e-22
1.00000000000453e-06 	1.35170714411495 	3.81639164714898e-17 	0.893387231541172 	0.0521489106884974 	2.73517389555357e-22
1.00000000000453e-06 	1.3685023364343 	3.81639164714898e-17 	0.899933517861364 	0.0523601890840644 	2.77368845733007e-22
1.00000000000453e-06 	1.38591278583198 	4.16333634234434e-17 	0.906667397545601 	0.0525021884336913 	2.11241880836567e-22
1.00000000000453e-06 	1.40396103097652 	4.16333634234434e-17 	0.913591650672654 	0.0525757890431996 	7.12426196237547e-23
1.00000000000453e-06 	1.42267043619387 	3.81639164714898e-17 	0.920706597498081 	0.0525822053825014 	-3.01645477670613e-22
1.00000000000453e-06 	1.44206522171365 	3.12250225675825e-17 	0.928009697694756 	0.052522892837871 	-6.03361454106649e-22
1.00000000000453e-06 	1.46217049502345 	3.12250225675825e-17 	0.935495192024154 	0.0523994365248085 	-3.01684852120348e-22
1.00000000000453e-06 	1.48301228337162 	2.77555756156289e-17 	0.943153814677028 	0.0522134326441531 	3.21836310764715e-22
1.00000000000453e-06 	1.50461756746086 	2.42861286636753e-17 	0.950972596727203 	0.0519663719425756 	8.08255109138297e-22
1.00000000000453e-06 	1.52701431637603 	2.77555756156289e-17 	0.958934773075584 	0.0516595328019395 	4.83092459569482e-22
1.00000000000453e-06 	1.55023152379144 	3.46944695195361e-17 	0.96701979913429 	0.051293888847445 	-1.71159670422898e-22
1.00000000000453e-06 	1.57429924550461 	3.81639164714898e-17 	0.975203479962443 	0.0508700335171424 	-3.42547228901611e-22
1.00000000000453e-06 	1.59924863834497 	3.46944695195361e-17 	0.983458212768909 	0.0503881226828653 	-3.4956738634371e-22
1.00000000000453e-06 	1.62511200050782 	4.16333634234434e-17 	0.991753342251044 	0.0498478364882647 	-3.56000041251702e-22
1.00000000000453e-06 	1.65192281336593 	4.5102810375397e-17 	1.0000556265738 	0.0492483620429429 	3.76413302874974e-22
1.00000000000453e-06 	1.67971578481283 	3.81639164714898e-17 	1.00832981057396 	0.0485883990093436 	1.29675392327939e-21
1.00000000000453e-06 	1.70852689419381 	3.81639164714898e-17 	1.0165393014936 	0.0478661909147716 	7.39079303855233e-22
1.00000000000453e-06 	1.73839343888296 	4.16333634234434e-17 	1.02464693963647 	0.0470795845326792 	0
1.00000000000453e-06 	1.76935408256639 	4.5102810375397e-17 	1.03261585238248 	0.0462261164105658 	0
1.00000000000453e-06 	1.80144890529426 	4.85722573273506e-17 	1.04041037570178 	0.045303121672686 	0
1.00000000000453e-06 	1.83471945536634 	4.85722573273506e-17 	1.0479970206922 	0.0443078582289608 	0
1.00000000000453e-06 	1.86920880311829 	4.5102810375397e-17 	1.05534544640989 	0.0432376411405534 	2.50296980274023e-24
1.00000000000453e-06 	1.9049615966783 	5.20417042793042e-17 	1.06242934263081 	0.0420900230045472 	4.92078029223149e-24
1.00000000000453e-06 	1.94202411976624 	5.8702771376512e-17 	1.0692271028854 	0.0408628388254064 	2.50470872156526e-24
1.00000000001227e-06 	1.98044435161019 	1.38777878078145e-17 	1.07572189323679 	0.0395545644093394 	0
1.00000000001227e-06 	2.02024009608346 	1.38777878078145e-17 	1.08185149375901 	0.0381774269685416 	0
1.00000000001227e-06 	2.06000503604194 	6.93889390390723e-18 	1.08747428774468 	0.0367722783220307 	0
1.00000000001227e-06 	2.09836474743797 	0 	1.09249752338755 	0.0353823234360154 	0
1.00000000001227e-06 	2.13536888877258 	0 	1.09695456186165 	0.0340249927537645 	0
1.00000000001227e-06 	2.17106536369585 	3.46944695195361e-18 	1.10091725834866 	0.0327044080526887 	0
1.00000000001227e-06 	2.20550038302045 	3.46944695195361e-18 	1.10444435586223 	0.0314235883688532 	0
1.00000000001227e-06 	2.23871852454379 	-6.93889390390723e-18 	1.10758341370166 	0.0301845371849631 	0
1.00000000001227e-06 	2.27076279075614 	-1.38777878078145e-17 	1.11037268483223 	0.0289883418010171 	0
1.00000000001227e-06 	2.30167466450941 	-1.38777878078145e-17 	1.11284278416515 	0.0278353363273118 	0
1.00000000001227e-06 	2.33149416271873 	-1.04083408558608e-17 	1.11501809741373 	0.0267252550699062 	0
1.00000000001227e-06 	2.36025988816627 	-1.04083408558608e-17 	1.11691792975286 	0.025657371007651 	0
1.00000000001227e-06 	2.38800907947441 	-1.38777878078145e-17 	1.11855741621185 	0.0246306166617945 	0
1.00000000001227e-06 	2.41477765931296 	-1.38777878078145e-17 	1.11994822592614 	0.0236436853390792 	0
1.00000000001227e-06 	2.44060028090273 	-1.38777878078145e-17 	1.12109909490874 	0.0226951130030607 	0
1.00000000001227e-06 	2.46551037287587 	-1.38777878078145e-17 	1.122016220125 	0.0217833424432026 	0
1.00000000001227e-06 	2.48954018255081 	-1.38777878078145e-17 	1.12270354376047 	0.0209067720567562 	0
1.00000000001227e-06 	2.512720817678 	-1.38777878078145e-17 	1.12316295215121 	0.0200637917561052 	0
1.00000000001227e-06 	2.53508228671037 	-1.38777878078145e-17 	1.12339440973529 	0.0192528084337308 	0
1.00000000001227e-06 	2.55665353765073 	-1.04083408558608e-17 	1.12339604500218 	0.0184722631792858 	0
1.00000000001227e-06 	2.57746249552637 	-1.04083408558608e-17 	1.12316420292996 	0.017720642136656 	0
1.00000000001227e-06 	2.59753609853934 	-1.04083408558608e-17 	1.12269347682196 	0.016996482570236 	0
1.00000000001227e-06 	2.6169003329393 	-6.93889390390723e-18 	1.12197673171031 	0.0162983754119913 	0
1.00000000001227e-06 	2.6355802666639 	-1.38777878078145e-17 	1.12100513143371 	0.0156249653010106 	0
1.00000000001227e-06 	2.6536000817905 	-2.08166817117217e-17 	1.11976818190242 	0.0149749489114285 	0
1.00000000001227e-06 	2.67098310584103 	-2.08166817117217e-17 	1.11825380362379 	0.0143470721927224 	0
1.00000000001227e-06 	2.68775184198057 	-2.77555756156289e-17 	1.11644844686088 	0.0137401270146579 	0
1.00000000001227e-06 	2.7039279981488 	-3.46944695195361e-17 	1.11433726230568 	0.0131529476117542 	0
1.00000000001227e-06 	2.71953251516198 	-3.46944695195361e-17 	1.11190433826077 	0.012584407152201 	0
1.00000000001227e-06 	2.73458559382185 	-3.46944695195361e-17 	1.10913301143576 	0.0120334147063755 	0
1.00000000001227e-06 	2.74910672106653 	-3.46944695195361e-17 	1.10600625213376 	0.0114989128532589 	0
1.00000000001227e-06 	2.76311469519732 	-3.46944695195361e-17 	1.10250711574183 	0.0109798761326227 	0
1.00000000001227e-06 	2.776627650214 	-3.46944695195361e-17 	1.09861924152713 	0.0104753105216393 	0
1.00000000001227e-06 	2.78966307929018 	-3.46944695195361e-17 	1.09432736793493 	0.00998425408323855 	0
1.00000000001227e-06 	2.80223785741905 	-3.81639164714898e-17 	1.08961782265366 	0.00950577889868034 	0
1.00000000001227e-06 	2.81436826325886 	-4.5102810375397e-17 	1.08447893770762 	0.00903899435833655 	0
1.00000000001227e-06 	2.82607000020648 	-4.85722573273506e-17 	1.07890133655552 	0.00858305184256779 	0
1.00000000001227e-06 	2.83735821672614 	-5.55111512312578e-17 	1.07287804255278 	0.00813715077776524 	0
1.00000000001227e-06 	2.8482475259599 	-6.24500451351651e-17 	1.06640436583238 	0.00770054599871612 	0
1.00000000001227e-06 	2.85875202464506 	-6.24500451351651e-17 	1.05947753698994 	0.00727255628520313 	0
1.00000000001227e-06 	2.86888531136304 	-6.24500451351651e-17 	1.05209606825142 	0.0068525738690678 	0
1.00000000001227e-06 	2.87866050414343 	-6.24500451351651e-17 	1.0442588330085 	0.00644007463510073 	0
1.00000000001227e-06 	2.88809025744591 	-6.24500451351651e-17 	1.03596385988558 	0.00603462868013662 	0
1.00000000001227e-06 	2.89718677854204 	-6.24500451351651e-17 	1.02720683553572 	0.00563591087066473 	0
1.00000000001227e-06 	2.90596184331819 	-6.24500451351651e-17 	1.0179792992741 	0.00524371107190255 	0
1.00000000001227e-06 	2.91442681151997 	-6.59194920871187e-17 	1.00826649057139 	0.00485794382637801 	0
1.00000000001227e-06 	2.92259264145801 	-6.93889390390723e-17 	0.998044774754773 	0.00447865744159515 	0
1.00000000001227e-06 	2.93046990419395 	-7.28583859910259e-17 	0.987278518738572 	0.00410604269448841 	0
1.00000000001227e-06 	2.93806879722526 	-7.63278329429795e-17 	0.975916209976902 	0.00374044165441067 	0
1.00000000001227e-06 	2.94539915768639 	-7.28583859910259e-17 	0.963885495816098 	0.00338235743682995 	0
1.00000000001227e-06 	2.95247047508335 	-6.93889390390723e-17 	0.951086646288802 	0.00303246596574875 	0
1.00000000001227e-06 	2.9592919035784 	-6.93889390390723e-17 	0.937383675860033 	0.00269163096121845 	0
1.00000000001227e-06 	2.96587227384056 	-6.93889390390723e-17 	0.922591937777332 	0.0023609237536151 	0
1.00000000001227e-06 	2.97222010447726 	-7.28583859910259e-17 	0.906460320933112 	0.00204165109049527 	0
1.00000000001227e-06 	2.97834361306218 	-7.97972798949331e-17 	0.888645038578357 	0.00173538908113501 	0
1.00000000001227e-06 	2.98425072677325 	-7.97972798949331e-17 	0.868670036206582 	0.00144397608363288 	0
1.00000000001227e-06 	2.98994909265478 	-7.63278329429795e-17 	0.845865564824274 	0.00116950417809336 	0
1.00000000001227e-06 	2.99544608751689 	-7.63278329429795e-17 	0.81923361121405 	0.00091491692263087 	0
1.00000000001227e-06 	3.00074882748522 	-7.97972798949331e-17 	0.787184278469537 	0.00068433818518278 	0
1.00000000001227e-06 	3.00586417721304 	-8.67361737988404e-17 	0.74722998746381 	0.000482853523663426 	0
1.00000000001227e-06 	3.01079875876789 	-9.0205620750794e-17 	0.695684319765839 	0.000315782068014539 	0
1.00000000001227e-06 	3.01555896020418 	-9.0205620750794e-17 	0.627184940830337 	0.00018606373393882 	0
1.00000000001227e-06 	3.02015094383281 	-9.71445146547012e-17 	0.534084341195735 	9.30668713700239e-05 	0
1.00000000001227e-06 	3.02458065419862 	-1.00613961606655e-16 	0.40951334512492 	3.43068326429473e-05 	0
1.00000000001227e-06 	3.02885382577583 	-1.04083408558608e-16 	0.256384817968258 	5.91443902044038e-06 	0
