3 	0.00391112967796271 	-1.90819582357449e-17 	-0.0605879984283309 	0.000104381440369804 	-4.79310611746426e-20
3 	0.0118766651674914 	-2.42861286636753e-17 	-0.129660926097994 	-0.000685195768393516 	2.43790528111461e-20
3 	0.0201340015485759 	-2.77555756156289e-17 	-0.148547943096883 	-0.00167515805532235 	-8.45621793662381e-21
3 	0.0286938283423949 	-3.12250225675825e-17 	-0.150607355489632 	-0.00271533308104466 	9.33339133488821e-21
3 	0.0375672266585909 	-3.12250225675825e-17 	-0.148434304083567 	-0.00384370967342371 	1.44224767299788e-21
3 	0.0467656835403032 	-2.42861286636753e-17 	-0.144921384574723 	-0.00504953848576024 	-7.86404537535145e-21
3 	0.0563011068347007 	-1.56125112837913e-17 	-0.140802700151416 	-0.00631647508856658 	-2.11081871549092e-21
3 	0.0661858406082649 	-1.73472347597681e-17 	-0.136320587623772 	-0.00763798381881913 	1.58945215583357e-17
3 	0.0764326811267816 	-1.90819582357449e-17 	-0.131568408253215 	-0.00901217861807109 	1.2376751634923e-16
3 	0.0870548934207257 	-1.73472347597681e-17 	-0.126582760374189 	-0.0104385234945889 	-1.00699256556448e-16
3 	0.0980662284574838 	-1.56125112837913e-17 	-0.121374692227177 	-0.011917041217816 	-1.50162410483148e-17
3 	0.109480940942647 	-8.67361737988404e-18 	-0.115942099280643 	-0.0134481079735964 	-2.43762805628491e-21
3 	0.121313807773417 	-3.46944695195361e-18 	-0.110275213179621 	-0.0150323331691355 	5.53498481869597e-17
3 	0.133580147168011 	-5.20417042793042e-18 	-0.104359206023832 	-0.0166704786520624 	6.09454056688082e-17
3 	0.146295838495839 	-6.93889390390723e-18 	-0.098175464252889 	-0.0183634066601878 	-4.91156133567997e-17
3 	0.159477342834115 	0 	-0.0917021964107432 	-0.020112043588721 	-5.47997286822682e-17
3 	0.173141724277517 	1.38777878078145e-17 	-0.0849146821315434 	-0.021917351620443 	-3.13982994449033e-21
3 	0.18730667202848 	3.12250225675825e-17 	-0.0777853139486089 	-0.0237803040043927 	-5.48169319540427e-21
3 	0.201990523296728 	4.16333634234434e-17 	-0.0702835107813819 	-0.0257018613160207 	-5.45637108187076e-22
3 	0.217212287037676 	3.81639164714898e-17 	-0.0623755461277431 	-0.0276829466459417 	5.10214164326626e-22
3 	0.232991668560441 	3.81639164714898e-17 	-0.0540243157222095 	-0.0297244178963857 	3.98082982520055e-21
3 	0.249349095037321 	4.5102810375397e-17 	-0.0451890600662589 	-0.0318270353638989 	1.07081752215228e-21
3 	0.266305741947753 	4.85722573273506e-17 	-0.0358250527557325 	-0.0339914226199482 	2.16233363007581e-21
3 	0.283883560490999 	4.16333634234434e-17 	-0.0258832639727944 	-0.0362180183167137 	2.78209985855308e-21
3 	0.30210530600303 	3.46944695195361e-17 	-0.0153100089507027 	-0.038507015588939 	-7.47350568944535e-22
3 	0.320994567414414 	2.77555756156289e-17 	-0.00404659511435984 	-0.0408582855190848 	1.6395527367587e-21
3 	0.340575797787321 	1.04083408558608e-17 	0.00797101391006914 	-0.043271283816439 	-1.34105143543747e-21
3 	0.360874345971201 	0 	0.0208125117029643 	-0.0457449294293292 	5.71235614802281e-17
3 	0.381916489418091 	3.46944695195361e-18 	0.034553494401917 	-0.048277451630189 	9.58839365361269e-17
3 	0.403729468200046 	1.04083408558608e-17 	0.0492755911219298 	-0.0508661987363851 	-9.12828014250958e-17
3 	0.426341520272733 	2.08166817117217e-17 	0.0650664305771917 	-0.0535073979127759 	-6.47073559451638e-17
3 	0.441285719950775 	2.60208521396521e-17 	0.0757679609882296 	-0.0552307133632622 	4.21171231786553e-22
3 	0.453216730115852 	2.94902990916057e-17 	0.0845402001518593 	-0.0565858318217211 	1.74829520182658e-21
3 	0.474081006202548 	3.12250225675825e-17 	0.100208726463862 	-0.0589240407289073 	1.34439920271357e-16
3 	0.499270241132364 	4.16333634234434e-17 	0.119761174043284 	-0.0616837744016445 	1.64231740805623e-16
3 	0.525382231502763 	6.24500451351651e-17 	0.140777515410233 	-0.0644631342228291 	-1.88582301408831e-16
3 	0.552450780547767 	5.89805981832114e-17 	0.163362358458536 	-0.0672470009903726 	-1.23661618324079e-16
3 	0.58051092981285 	4.5102810375397e-17 	0.18761670246246 	-0.0700162602776016 	2.47058501430412e-20
3 	0.609599004517911 	3.81639164714898e-17 	0.213633022314465 	-0.0727470878437771 	1.03525537455068e-20
3 	0.639752660582033 	3.81639164714898e-17 	0.241488710581186 	-0.0754102553292863 	1.17179801753324e-20
3 	0.671010933370887 	4.16333634234434e-17 	0.271237634555321 	-0.0779705579822697 	1.01743019883113e-20
3 	0.703414288229901 	4.16333634234434e-17 	0.302899727198517 	-0.0803865158697142 	-6.591259663123e-21
3 	0.737004672868606 	4.5102810375397e-17 	0.336448942885429 	-0.0826105326507571 	1.26515695420579e-20
3 	0.771825571663976 	5.89805981832114e-17 	0.371800674177253 	-0.0845896617645176 	-3.2712609963056e-20
3 	0.807922061953054 	6.24500451351651e-17 	0.408800476571359 	-0.086267013359534 	-1.22333393835821e-20
3 	0.845340872387743 	5.55111512312578e-17 	0.447215666914668 	-0.0875837471566167 	-4.2681519478259e-17
3 	0.88413044342731 	5.55111512312578e-17 	0.486729717885086 	-0.0884817222055293 	-3.66811748411084e-17
3 	0.924340990046898 	5.55111512312578e-17 	0.526938295700224 	-0.0889072085484488 	3.80793294310756e-17
3 	0.966024566743242 	5.89805981832114e-17 	0.567347725461771 	-0.0888162366267277 	3.16748160581624e-17
3 	1.00923513492173 	6.24500451351651e-17 	0.607381079548703 	-0.088181723992577 	1.1130241275142e-20
3 	1.05402863275206 	6.24500451351651e-17 	0.646400552470154 	-0.0870014335009532 	3.67522865803728e-21
3 	1.10046304758287 	6.59194920871187e-17 	0.683753755204692 	-0.0853044666967592 	-2.83033402168225e-23
3 	1.14859849100923 	6.93889390390723e-17 	0.718843935629571 	-0.083153070781511 	-5.11755678679812e-20
3 	1.19849727668995 	6.59194920871187e-17 	0.751210954412865 	-0.080637055640033 	8.12962042107873e-22
3 	1.25022400101563 	6.04984812246911e-17 	0.780582352286402 	-0.0778589839352517 	1.10282726045274e-19
3 	1.30384562673186 	5.70290342727375e-17 	0.806864210726763 	-0.0749162264292755 	4.29678439250095e-21
3 	1.35943156962566 	5.46437894932694e-17 	0.830337719213642 	-0.0719051481422089 	5.65638918408146e-21
3 	1.41705378838763 	5.63785129692462e-17 	0.851335664116225 	-0.0688836177650731 	8.33241466331211e-20
3 	1.47678687776592 	6.24500451351651e-17 	0.870253016158356 	-0.0658834523577042 	3.75207792745435e-21
3 	1.53870816513278 	6.24500451351651e-17 	0.887481088675281 	-0.0629148100429605 	-5.02420691419819e-20
3 	1.60289781058851 	6.07153216591882e-17 	0.903366912682507 	-0.0599726680400554 	9.93881430698086e-21
3 	1.66943891073267 	5.89805981832114e-17 	0.918200456237441 	-0.0570421020778503 	1.15832649971598e-20
3 	1.73841760623657 	5.20417042793042e-17 	0.93221027963697 	-0.054102876303643 	6.63973739857583e-21
3 	1.8099231933566 	4.85722573273506e-17 	0.945560119059617 	-0.0511336699286472 	-1.43203989549277e-20
3 	1.88404823953249 	4.68375338513738e-17 	0.958352326142337 	-0.0481125646189539 	-8.06859349030401e-21
3 	1.96088870322038 	1.73472347597681e-17 	0.969995149843086 	-0.0451981448259491 	-1.76755774973211e-20
3 	2 	2.08166817117217e-17 	0.975300073446228 	-0.0438314595983243 	0
3 	2.02024009608346 	2.42861286636753e-17 	0.978848895016752 	-0.0428624430074325 	0
3 	2.06000503604194 	2.77555756156289e-17 	0.985123463524135 	-0.0411165423660999 	0
3 	2.09836474743796 	2.77555756156289e-17 	0.990374465442851 	-0.0395943525524063 	0
3 	2.13536888877257 	2.77555756156289e-17 	0.995238527944676 	-0.0381310278782579 	0
3 	2.17106536369585 	2.77555756156289e-17 	0.999742103278663 	-0.0367210119863861 	0
3 	2.20550038302044 	2.77555756156289e-17 	1.00390852630658 	-0.0353619757517429 	0
3 	2.23871852454378 	2.42861286636753e-17 	1.00775844225699 	-0.0340518058218347 	0
3 	2.27076279075613 	2.08166817117217e-17 	1.01131024858919 	-0.032788476853677 	0
3 	2.30167466450941 	2.08166817117217e-17 	1.01458039367956 	-0.0315701029036701 	0
3 	2.33149416271872 	1.73472347597681e-17 	1.01758360542665 	-0.0303949152670502 	0
3 	2.36025988816627 	1.38777878078145e-17 	1.02033306993656 	-0.0292612376481565 	0
3 	2.38800907947441 	1.38777878078145e-17 	1.02284057241481 	-0.0281674706984833 	0
3 	2.41477765931296 	1.38777878078145e-17 	1.02511660931907 	-0.0271120809665241 	0
3 	2.44060028090273 	1.38777878078145e-17 	1.02717047807816 	-0.0260935925033967 	0
3 	2.46551037287587 	1.38777878078145e-17 	1.02901034866634 	-0.0251105804656516 	0
3 	2.48954018255081 	1.38777878078145e-17 	1.03064331994808 	-0.0241616661666092 	-6.19763170335302e-16
3 	2.51272081767801 	1.38777878078145e-17 	1.03207546273953 	-0.0232455131498942 	-6.08012121449145e-16
3 	2.53508228671038 	1.38777878078145e-17 	1.03331185082792 	-0.0223608239803441 	6.42777029766818e-16
3 	2.55665353765073 	1.38777878078145e-17 	1.03435658066192 	-0.0215063375344146 	6.31025980880693e-16
3 	2.57746249552636 	1.38777878078145e-17 	1.03521278001403 	-0.0206808266338945 	0
3 	2.59753609853934 	1.38777878078145e-17 	1.03588260557741 	-0.0198830959117947 	0
3 	2.6169003329393 	1.38777878078145e-17 	1.03636722916626 	-0.0191119798324153 	0
3 	2.6355802666639 	1.38777878078145e-17 	1.03666681191843 	-0.018366340812134 	0
3 	2.6536000817905 	1.38777878078145e-17 	1.03678046563726 	-0.0176450674059731 	0
3 	2.67098310584103 	1.73472347597681e-17 	1.0367062001456 	-0.0169470725394233 	0
3 	2.68775184198056 	2.08166817117217e-17 	1.03644085525117 	-0.0162712917768733 	0
3 	2.70392799814879 	2.08166817117217e-17 	1.03598001563491 	-0.0156166816285548 	0
3 	2.71953251516198 	2.08166817117217e-17 	1.03531790667212 	-0.014982217908241 	0
3 	2.73458559382185 	2.08166817117217e-17 	1.03444726888284 	-0.0143668941650167 	0
3 	2.74910672106653 	2.08166817117217e-17 	1.03335920839309 	-0.0137697202252485 	0
3 	2.76311469519732 	2.08166817117217e-17 	1.03204302048788 	-0.0131897208963932 	0
3 	2.776627650214 	2.08166817117217e-17 	1.03048598307754 	-0.0126259349035426 	0
3 	2.78966307929018 	2.08166817117217e-17 	1.02867311672081 	-0.012077414153659 	0
3 	2.80223785741904 	1.73472347597681e-17 	1.02658690780681 	-0.0115432234523333 	0
3 	2.81436826325886 	1.38777878078145e-17 	1.02420699166988 	-0.0110224408344382 	0
3 	2.82607000020648 	1.38777878078145e-17 	1.02150979288921 	-0.0105141587136068 	0
3 	2.83735821672614 	1.38777878078145e-17 	1.01846812091723 	-0.0100174861054997 	0
3 	2.84824752595991 	1.38777878078145e-17 	1.01505072059062 	-0.00953155223412336 	0
3 	2.85875202464507 	1.38777878078145e-17 	1.01122177907004 	-0.00905551188422905 	0
3 	2.86888531136304 	1.38777878078145e-17 	1.00694039328916 	-0.00858855290731288 	0
3 	2.87866050414343 	1.38777878078145e-17 	1.00216000481489 	-0.0081299063098831 	0
3 	2.88809025744591 	1.38777878078145e-17 	0.996827811490156 	-0.00767885932989844 	0
3 	2.89718677854204 	1.38777878078145e-17 	0.990884166096 	-0.00723477181338623 	0
3 	2.90596184331819 	1.38777878078145e-17 	0.984261969377241 	-0.00679709600659511 	0
3 	2.91442681151997 	1.38777878078145e-17 	0.976886054774474 	-0.0063653995497404 	0
3 	2.92259264145801 	1.38777878078145e-17 	0.968672540294655 	-0.00593939097993649 	0
3 	2.93046990419395 	1.38777878078145e-17 	0.959528082767707 	-0.00551894643715316 	0
3 	2.93806879722526 	1.73472347597681e-17 	0.94934890332241 	-0.00510413558136023 	0
3 	2.94539915768638 	2.08166817117217e-17 	0.938019350513755 	-0.00469524409730282 	0
3 	2.95247047508335 	2.08166817117217e-17 	0.925409616315974 	-0.00429278976896229 	0
3 	2.9592919035784 	2.08166817117217e-17 	0.911372000134256 	-0.00389752915817265 	0
3 	2.96587227384055 	2.08166817117217e-17 	0.895734789571756 	-0.00351045259520444 	0
3 	2.97222010447726 	2.08166817117217e-17 	0.878292316427743 	-0.00313276649398999 	0
3 	2.97834361306218 	2.08166817117217e-17 	0.85878888792151 	-0.00276586359085972 	0
3 	2.98425072677325 	2.08166817117217e-17 	0.836892735600388 	-0.00241128365328652 	0
3 	2.98994909265477 	2.08166817117217e-17 	0.812153107982141 	-0.00207067184227514 	0
3 	2.99544608751689 	2.08166817117217e-17 	0.783927465065221 	-0.00174575455763089 	0
3 	3.00074882748522 	2.08166817117217e-17 	0.751251967144278 	-0.00143824393890388 	0
3 	3.00586417721304 	2.08166817117217e-17 	0.712597138994421 	-0.00114921270285668 	0
3 	3.01079875876789 	2.42861286636753e-17 	0.665377510206574 	-0.000879033551014057 	1.06864040119962e-14
3 	3.01555896020418 	2.77555756156289e-17 	0.604924860144166 	-0.000636712200578531 	6.97739490805192e-15
3 	3.02015094383282 	2.77555756156289e-17 	0.522677821649586 	-0.000435350860259554 	-1.81040070893415e-14
3 	3.02458065419862 	2.77555756156289e-17 	0.407165682742821 	-0.000255896207255064 	-1.43949979853952e-14
3 	3.02885382577583 	2.77555756156289e-17 	0.256424115755905 	-9.33852274884881e-05 	0
