/*--------------------------------*- C++ -*----------------------------------*\
  =========                 |
  \\      /  F ield         | OpenFOAM: The Open Source CFD Toolbox
   \\    /   O peration     | Website:  https://openfoam.org
    \\  /    A nd           | Version:  7
     \\/     M anipulation  |
\*---------------------------------------------------------------------------*/
FoamFile
{
    version     2.0;
    format      ascii;
    class       volSymmTensorField;
    location    "3000";
    object      bijDelta;
}
// * * * * * * * * * * * * * * * * * * * * * * * * * * * * * * * * * * * * * //

dimensions      [0 0 0 0 0 0 0];

internalField   nonuniform List<symmTensor> 
15600
(
(7.28315892791563e-05 -3.34618364299826e-07 -7.08364743608634e-25 -3.5725273663629e-05 -1.74439247217576e-23 -3.70951859467764e-05)
(8.7270548733586e-05 -3.29479139273479e-06 -7.86814444718132e-22 -4.28239560509631e-05 1.98722121030903e-23 -4.44332613710805e-05)
(5.25825233126102e-05 -8.72717967353639e-06 -4.15087673701795e-23 -2.5362719558583e-05 -1.08733247412831e-22 -2.72116394457627e-05)
(3.65672056056524e-06 -1.51418860354949e-06 1.12601606048726e-18 -1.59264367617872e-06 -2.65160681492647e-19 -2.06345778514105e-06)
(3.6183215185349e-06 -2.73490260368326e-06 -1.20692411869075e-18 -1.14668449602976e-06 5.6433017297641e-19 -2.47089567966696e-06)
(3.94715444747606e-06 -4.27788332238225e-06 4.0862244734909e-21 -6.43946257580195e-07 -2.34866835677556e-21 -3.30221742559176e-06)
(1.69538657225936e-06 -2.35857088984314e-06 1.85060725936135e-21 1.07847953971836e-08 -1.36183191547786e-21 -1.70565961859606e-06)
(9.87975549081092e-07 -1.61618993948003e-06 2.59065868074588e-20 1.51368586368651e-07 -2.71631713017266e-21 -1.13900240055609e-06)
(6.46428864258818e-07 -1.18379790892758e-06 -1.50370506020834e-19 1.78000380528177e-07 1.40971961135625e-19 -8.24181965469423e-07)
(5.64414115770244e-07 -1.06210052681367e-06 -2.00164119602338e-19 1.74081817528216e-07 1.51617553201245e-19 -7.38274428819366e-07)
(5.24533588285162e-07 -9.6508290265786e-07 -2.54414919107702e-20 1.48216308479391e-07 2.92947098516608e-21 -6.72548112152446e-07)
(5.56148518527243e-07 -9.85550159452051e-07 -4.09924907990382e-25 1.33581202288741e-07 3.1067840905444e-25 -6.89522843275247e-07)
(6.20992359839202e-07 -1.06960650616719e-06 1.38936682218267e-22 1.29912704408149e-07 -7.88843567906171e-24 -7.50679837773371e-07)
(7.51773017354301e-07 -1.26932321643464e-06 6.1944523994404e-21 1.41457912360408e-07 -4.76278723118736e-21 -8.92963014018933e-07)
(9.91961176117513e-07 -1.65200207687914e-06 -5.70135594379017e-21 1.72615924608768e-07 4.34202876699526e-21 -1.16422779745672e-06)
(1.3990909767259e-06 -2.3049364602263e-06 2.96976050552414e-23 2.28251655901055e-07 -5.97504951556868e-24 -1.6268545274582e-06)
(2.00657081657793e-06 -3.24932147222292e-06 -2.42694560120701e-21 2.93651806105694e-07 1.3315520700567e-21 -2.29953269388258e-06)
(2.88134818241686e-06 -4.47308172423948e-06 -4.44208068163583e-21 3.06695736779046e-07 3.35547541486105e-21 -3.18708769726454e-06)
(4.12924262904423e-06 -5.96887976073779e-06 9.88855889201806e-21 1.79815984361008e-07 -5.80613739354749e-21 -4.30776615431304e-06)
(5.81609129813216e-06 -7.59711225829557e-06 9.06671638119633e-21 -2.1014941008127e-07 -7.31428054538364e-21 -5.60426044177373e-06)
(7.94809261269401e-06 -9.08691707550768e-06 2.3945938786892e-21 -9.94611718424305e-07 -1.48410403873335e-21 -6.95139526712685e-06)
(1.06127490542489e-05 -1.0258167488914e-05 -1.30315301078306e-21 -2.28442825351542e-06 1.61701093135588e-21 -8.32582280409263e-06)
(1.38629610156204e-05 -1.10099353527661e-05 -2.33907381512902e-20 -4.09000240379316e-06 9.05590394058427e-21 -9.77002731050399e-06)
(1.74032844626805e-05 -1.10186635156777e-05 -2.28958127679631e-20 -6.26897053083709e-06 8.97700434806533e-21 -1.11309743055891e-05)
(2.08320129970027e-05 -1.00320430655612e-05 -1.25076389282791e-20 -8.56800025249214e-06 5.18585266998619e-21 -1.22603342763809e-05)
(2.38094938977724e-05 -8.04283476211939e-06 6.20655610469312e-20 -1.06864512981455e-05 9.3296121128933e-20 -1.31191064740722e-05)
(2.58972412844607e-05 -5.0786449474275e-06 9.65264650087758e-20 -1.22677752146635e-05 1.00069587931003e-19 -1.36253780475807e-05)
(3.29104647427658e-05 -2.43912903387741e-06 2.8053723080534e-19 -1.59955432375874e-05 -1.37719306092484e-19 -1.69098480434193e-05)
(5.0427378785361e-05 -1.09808748115125e-06 1.87742899241677e-20 -2.46847447729217e-05 -1.51534564196872e-19 -2.57349127664848e-05)
(6.81044906798968e-05 -9.56138011150637e-07 -7.1770804543735e-29 -3.33829932971644e-05 5.48055155547e-28 -3.47110830163908e-05)
(8.02995913535729e-05 -8.02911477867384e-07 -2.60433424425471e-20 -3.93657210434659e-05 2.00023319095724e-19 -4.09215926045551e-05)
(8.93868133912662e-05 -6.71999825669627e-07 8.48532329771683e-19 -4.38227586385953e-05 2.07620958661536e-19 -4.55503882695417e-05)
(9.56161156171385e-05 -5.71914508071458e-07 1.10170441602467e-18 -4.68778204719575e-05 -2.22632548396849e-19 -4.87236765803504e-05)
(9.96681442179955e-05 -4.81893072210345e-07 2.91371620305189e-20 -4.88649142478747e-05 -2.24370417386928e-19 -5.07879920487141e-05)
(0.000101850053994275 -4.03498109034572e-07 8.01069219391465e-23 -4.99349051480957e-05 -2.50668594309811e-25 -5.18995774158115e-05)
(0.000102492081931622 -3.30857706869394e-07 7.98913410983938e-23 -5.02497654880717e-05 -1.91039331612845e-25 -5.22266468825293e-05)
(0.000101817042850649 -2.63961663561629e-07 -7.88164143727583e-23 -4.99188269169332e-05 2.74007641439372e-24 -5.18826495822058e-05)
(0.000100041695122857 -2.02702436177164e-07 2.38175593273581e-20 -4.90484010587218e-05 -2.13893177252353e-19 -5.0977999134902e-05)
(9.73645434555821e-05 -1.47739363378548e-07 -1.13166848438402e-18 -4.77358221821097e-05 -2.14339989100319e-19 -4.96138356342182e-05)
(9.39608353097869e-05 -9.87170854064315e-08 -1.25813002498673e-18 -4.60670110133108e-05 2.06561270296515e-19 -4.7879459022242e-05)
(8.99869323024625e-05 -5.56044358399467e-08 -2.12821623328874e-20 -4.41186386107149e-05 2.0581824107284e-19 -4.58545359551874e-05)
(8.55833944479451e-05 -1.82275399809582e-08 1.46496867036767e-23 -4.1959623629208e-05 -4.82240603896421e-24 -4.36106863043944e-05)
(8.08742959878808e-05 1.36537558852841e-08 -4.88280344614229e-23 -3.96508003312729e-05 -2.09054606850293e-26 -4.1211131080826e-05)
(7.59681877183197e-05 4.03721644588565e-08 8.16013875568868e-23 -3.72453907150642e-05 7.77727335191771e-26 -3.87111824870578e-05)
(7.09585174719157e-05 6.23185331956549e-08 -1.29537213909016e-23 -3.47892113315817e-05 -2.2680439082227e-24 -3.61584575182163e-05)
(6.59245844726717e-05 7.99219495216152e-08 -1.46487298847795e-20 -3.23211413673198e-05 1.90322898037083e-19 -3.35933640882238e-05)
(6.09325745895119e-05 9.36288603537651e-08 1.05002096742523e-18 -2.98736304547304e-05 1.88712846611638e-19 -3.1049628314705e-05)
(5.60367777848142e-05 1.03882851608716e-07 1.07889630325839e-18 -2.74732956936607e-05 -1.72145775657616e-19 -2.85549147599924e-05)
(5.12808615847467e-05 1.11113336071463e-07 1.16078908621721e-20 -2.51415460861445e-05 -1.70325654942478e-19 -2.61314752719979e-05)
(4.66991405951809e-05 1.15724944022973e-07 -1.94843129535184e-23 -2.28952050449619e-05 -9.88293223103519e-25 -2.37967957975045e-05)
(4.23178185716771e-05 1.18091393116804e-07 3.24185657126519e-23 -2.07471193641143e-05 -8.27312008956876e-25 -2.15642292917837e-05)
(3.81561266100035e-05 1.1855466978299e-07 -7.30470110861925e-21 -1.87067172883629e-05 1.46766163344768e-19 -1.94435756655753e-05)
(3.42273794284835e-05 1.17421575488018e-07 7.7867992512504e-19 -1.67805264143374e-05 1.44178200727434e-19 -1.74416200048437e-05)
(3.05399179696521e-05 1.14966434988218e-07 7.62786717535157e-19 -1.4972635799437e-05 -1.27730614730813e-19 -1.55626129194142e-05)
(2.70979239858722e-05 1.114326276827e-07 5.13278017496244e-21 -1.32850953738893e-05 -1.2517822378369e-19 -1.38086855920033e-05)
(2.39021555325072e-05 1.0703303695733e-07 3.01910649193597e-26 -1.1718276536644e-05 -3.54605828876611e-25 -1.2180224563051e-05)
(2.09505714792957e-05 1.01954169342667e-07 1.12655683707936e-26 -1.02711783144892e-05 1.70873697665643e-25 -1.06761899874925e-05)
(1.8238858221296e-05 9.63583525364987e-08 -1.55075188377004e-24 -8.94168561356565e-06 -2.49184827937537e-25 -9.2943840136668e-06)
(1.57608890274941e-05 9.03857214182485e-08 -3.45649905980618e-24 -7.72679442859395e-06 -9.44455891433191e-26 -8.03168485246974e-06)
(1.3509111280839e-05 8.41567597826749e-08 3.56930526603979e-25 -6.62280169412077e-06 2.09438577541982e-25 -6.8842441069382e-06)
(1.14748740837257e-05 7.77743445072682e-08 1.00403072227294e-24 -5.62546590142922e-06 -1.87447371744214e-25 -5.84765371073614e-06)
(9.64870112887328e-06 7.13260004845307e-08 -3.39164909517244e-24 -4.73014087712768e-06 9.42661579255481e-26 -4.91708497872467e-06)
(8.02051596270693e-06 6.48856803109076e-08 -1.18904288109497e-24 -3.93188622475254e-06 9.93440013861917e-26 -4.08740339430174e-06)
(6.57982868179947e-06 5.85155299071284e-08 3.15587454895524e-24 -3.22555885683494e-06 -7.08470587534136e-26 -3.35326374523299e-06)
(5.31588887112439e-06 5.22673384027745e-08 1.04798408456006e-27 -2.60588797690254e-06 1.82984595959791e-25 -2.70918805652113e-06)
(4.21780930576236e-06 4.61840314571243e-08 3.35171618912201e-24 -2.06753572407375e-06 -1.2707770259769e-25 -2.14962862860472e-06)
(3.27466221397675e-06 4.03012017747816e-08 -2.96960459624397e-24 -1.6051443697139e-06 -1.79839887260273e-25 -1.66901708906062e-06)
(2.47555112955051e-06 3.4647907222422e-08 1.20079996958119e-27 -1.21337154851315e-06 1.25491986022336e-25 -1.26180100287868e-06)
(1.80966588920963e-06 2.9247456430983e-08 0 -8.86917223158876e-07 0 -9.22471896804786e-07)
(1.26633105139268e-06 2.41188332700831e-08 0 -6.20547412896498e-07 0 -6.45589942143899e-07)
(8.35013782603962e-07 1.92783318139311e-08 0 -4.09098081661266e-07 0 -4.25787951782246e-07)
(5.05344398795953e-07 1.47381034080889e-08 -2.50865203958863e-22 -2.47485204734931e-07 -1.97518564802396e-20 -2.57781851771262e-07)
(2.67086301026139e-07 1.05124940309689e-08 -5.51837728201585e-20 -1.30689895983562e-07 -3.08615656156619e-20 -1.36355494303212e-07)
(1.10115527482836e-07 6.61328048804168e-09 -6.65342879171108e-20 -5.3748383803392e-08 -3.76520088498757e-21 -5.63502369176925e-08)
(2.44179281700072e-08 3.04530737973489e-09 -1.57544798258335e-20 -1.17509639133875e-08 7.06273940205732e-21 -1.26631649272086e-08)
(1.29499255864379e-10 -1.88635021982405e-10 -7.71912225032008e-22 1.38306427326461e-10 -2.36323466283084e-22 -2.6772535755101e-10)
(2.75345556874961e-08 -3.08564789894294e-09 1.16902456847358e-24 -1.33170622226942e-08 -6.14834157691795e-26 -1.42132290696415e-08)
(9.70550643529883e-08 -5.63792685797618e-09 -3.88241031746763e-25 -4.74211336189753e-08 2.0928957447853e-26 -4.96190435322331e-08)
(1.99185729571597e-07 -7.83142023705019e-09 1.8335124055953e-21 -9.75136979192716e-08 1.27785408307044e-20 -1.01641536141932e-07)
(3.24354688823934e-07 -9.64111878459479e-09 6.35511292206137e-20 -1.58902245039574e-07 1.4609481264138e-20 -1.65402817976386e-07)
(4.62988948953277e-07 -1.10615419586447e-08 6.24069115588009e-20 -2.26893152679643e-07 -2.0816383708966e-20 -2.36024981697667e-07)
(6.05153816690543e-07 -1.20557075668225e-08 -2.73645413467869e-21 -2.96615948385766e-07 -2.21172352816139e-20 -3.08445325452855e-07)
(7.40960118465254e-07 -1.2624070422879e-08 6.07409989058693e-24 -3.63221604810392e-07 -3.8164594431507e-25 -3.77625214760544e-07)
(8.59631606922605e-07 -1.26813040294462e-08 -2.07983721643075e-24 -4.21427575878147e-07 2.4665380976958e-26 -4.38072596122129e-07)
(9.50902501591992e-07 -1.22680663976361e-08 -4.82768789064314e-24 -4.66199398235603e-07 4.07963281264587e-26 -4.84557721501753e-07)
(1.00294661842173e-06 -1.12265314578348e-08 -2.64508641469698e-23 -4.91739824224e-07 1.25043087719808e-24 -5.11053462825743e-07)
(1.00611553169788e-06 -9.71772162730971e-09 4.11953931223396e-23 -4.93315047857329e-07 -2.39152359865438e-25 -5.12646674457276e-07)
(9.49810633644478e-07 -7.43063423113344e-09 -1.42966060981777e-23 -4.65729606242837e-07 -1.9971138823204e-24 -4.83935832132473e-07)
(8.26981475422653e-07 -4.71492984072149e-09 -1.29440441127569e-23 -4.05519786134288e-07 1.9310192235704e-24 -4.21335276064224e-07)
(6.36585343849602e-07 -1.28163201536416e-09 3.36857958513609e-23 -3.12164259087437e-07 7.10552549436696e-25 -3.2432377789811e-07)
(3.87536888287748e-07 2.11705902167626e-09 -9.38456708519965e-26 -1.90007258381561e-07 -8.83203533717739e-25 -1.97470382866623e-07)
(1.3160442918963e-07 3.93729601128221e-09 4.99887350558055e-24 -6.44456124583298e-08 2.46917391578554e-25 -6.71386731150042e-08)
(3.8256688623104e-09 -8.03382760895587e-10 -4.20315665829723e-26 -1.52438722641289e-09 -4.29791322473825e-26 -2.30059138945603e-09)
(5.63685209403784e-08 1.03765250310351e-08 -9.80960202262858e-24 -2.65587406578215e-08 4.35946911908184e-23 -2.98008391367013e-08)
(4.633672650572e-08 1.12799166870251e-08 7.99602211839205e-22 -2.14380248393887e-08 1.34369628420079e-22 -2.48912335494548e-08)
(1.70784976556127e-08 5.22810295286991e-09 -4.5895647945709e-22 -7.74097328366943e-09 -8.65208934115822e-23 -9.33472367477109e-09)
(2.87137026817055e-09 3.9780367374638e-09 -7.74215384488864e-22 -2.01813726246598e-10 -4.78625581961412e-22 -2.66875583510274e-09)
(8.01595650223123e-08 7.52671899914455e-08 -2.08072887654952e-21 -1.88148004103652e-08 -8.42661258485807e-22 -6.13263648625134e-08)
(3.12983412852108e-07 3.25948915240701e-07 3.48445378641455e-21 -5.64846057955655e-08 1.95937837358216e-21 -2.56421872801276e-07)
(7.98460664798285e-07 9.33067678518168e-07 -5.10468227765607e-21 -9.03789718244848e-08 -3.1496550848565e-21 -7.07869310942314e-07)
(1.60880671197211e-06 2.08716983062e-06 -3.92937158487537e-22 -6.82321371381744e-08 4.54771652748787e-22 -1.54011249487748e-06)
(2.81074877774783e-06 3.94097924297845e-06 8.77714920286741e-21 4.81002021464894e-08 5.64468384853066e-21 -2.85799149669699e-06)
(4.44956158106568e-06 6.59289517410802e-06 -8.13228583697724e-21 2.81587696053642e-07 -6.4262533858647e-21 -4.72973021614838e-06)
(6.63836816707651e-06 1.01327780688106e-05 6.90563253031313e-22 5.94235084287685e-07 -1.90286697453652e-23 -7.23043390425821e-06)
(9.16433808204906e-06 1.41929152812893e-05 -1.10050253957968e-20 9.42680278714817e-07 -8.75376428768358e-21 -1.01039868615555e-05)
(1.1597911301122e-05 1.82291933599117e-05 -7.65671699436039e-22 1.35570769891108e-06 -4.79194092735156e-22 -1.29497336913948e-05)
(1.37994071493782e-05 2.21824842940559e-05 -5.8707581763726e-22 1.91345203798264e-06 -3.45823936636382e-22 -1.57081462721876e-05)
(1.57402933873682e-05 2.60745359056917e-05 -3.6380001576759e-22 2.6552045588972e-06 -1.76627615916793e-22 -1.83899804003907e-05)
(1.74716277695256e-05 3.00237883368462e-05 -1.29655820713599e-20 3.61388503855247e-06 -9.23059243587665e-21 -2.10791884191134e-05)
(1.93336862228571e-05 3.46037260064334e-05 -1.4197988717919e-21 4.85327505814672e-06 -2.62458654659108e-22 -2.4179706643547e-05)
(2.27706438656878e-05 4.17333106945475e-05 -9.6224802629774e-21 6.31122953593537e-06 -8.77726463684596e-21 -2.90731505841662e-05)
(3.0072678666106e-05 5.33822440072643e-05 -1.05374059718707e-20 7.21933693488326e-06 -8.54694689707465e-21 -3.72808302333825e-05)
(4.32716652427468e-05 7.00609397657476e-05 1.00260324018305e-20 6.18700957491639e-06 8.47277049056707e-21 -4.94438401821449e-05)
(6.9543150430164e-05 9.58474319920362e-05 1.70359653879629e-21 -4.87212174263873e-08 3.62591370528847e-22 -6.94735850528058e-05)
(0.000123146732092589 0.000133342838731188 -2.71769440579279e-20 -2.01727041247454e-05 -1.66772958220463e-20 -0.00010294314193666)
(0.000229124401366938 0.000172268766555868 1.47644820804549e-20 -7.33763120857062e-05 7.46039300780379e-21 -0.000155701374197464)
(0.000301226169404167 0.000131628496969766 1.24144805705113e-21 -0.000129728136240622 3.38296358256103e-22 -0.00017144659404142)
(0.000230223685882429 4.60375196932562e-05 1.01148418958064e-22 -0.000110295076102807 -2.23668637792819e-22 -0.000119892638390966)
(0.000115817867830446 5.85751842266853e-06 -8.12389009877887e-22 -5.68433353206597e-05 -3.1735999643615e-23 -5.89568436877974e-05)
(7.02448592384237e-05 -1.59977164815181e-07 -2.40866169109936e-25 -3.44571974240499e-05 1.5357339240654e-23 -3.57769276626598e-05)
(0.00141747077592493 -1.42069175096292e-06 7.09225818727273e-24 -0.000696100349523956 -1.03894324970957e-25 -0.000721154058546625)
(0.00136218500407962 -3.9814370518592e-05 2.33763742495521e-20 -0.000671288539577953 -3.84669503040611e-22 -0.000690689237007811)
(0.00102326005132968 -0.000124845488096199 6.4291090703616e-19 -0.000500152536244492 2.10673090793443e-18 -0.000522950614210838)
(0.000347809563808594 -9.35435835055591e-05 -2.95973100405429e-17 -0.000162020435704178 5.37831616241089e-18 -0.000185733402511103)
(1.57761300920514e-07 -2.20191853796897e-06 1.64068644669757e-18 2.63649896527643e-06 -4.4936659390517e-18 -2.79342215573918e-06)
(3.81270497675267e-05 -4.88427825355791e-05 8.15509307472977e-19 -2.36746476925292e-06 1.10040914957659e-19 -3.57488592679204e-05)
(2.27270705381327e-05 -3.45342114988879e-05 -3.5454772629637e-20 1.68423896885399e-06 2.58051492266846e-20 -2.44039875785203e-05)
(1.48807264535923e-05 -2.63726411322407e-05 -7.14100578344997e-19 3.45599349731636e-06 3.76774457413152e-20 -1.83312200349066e-05)
(1.09166245974909e-05 -2.14124610640266e-05 -9.40688616405373e-18 3.87956386748562e-06 7.33364528147848e-18 -1.47917504960308e-05)
(1.01274701751781e-05 -2.02094600494398e-05 -8.50778877014525e-18 3.86104754318057e-06 7.73731743397977e-18 -1.39843220021864e-05)
(1.0277739387047e-05 -1.96565757150586e-05 8.46418648434411e-19 3.39489144353713e-06 -9.62770923549667e-20 -1.36685298615288e-05)
(1.15277034963294e-05 -2.10452918173439e-05 6.74094950870942e-24 3.17523491797945e-06 -5.44971309584359e-24 -1.46985284147844e-05)
(1.36225855991148e-05 -2.3973960610091e-05 4.83035876737964e-21 3.18508730321496e-06 -2.93749923002001e-22 -1.68026316087178e-05)
(1.71578764140071e-05 -2.95095047533368e-05 -1.43688268022799e-19 3.57720595755486e-06 1.06334074676549e-19 -2.07288630907067e-05)
(2.28694231744064e-05 -3.88712704585361e-05 -8.65951388383681e-20 4.4746244543785e-06 6.37148094330486e-20 -2.7335846054811e-05)
(3.13166854958285e-05 -5.30180511483119e-05 8.50845675153164e-21 5.99915339065459e-06 -3.14475627859358e-22 -3.73046463733198e-05)
(4.28607374142332e-05 -7.1702790996993e-05 -1.06416954037131e-19 7.72760327845135e-06 9.34639153739813e-20 -5.05731672251702e-05)
(5.85668902561598e-05 -9.40987710141587e-05 2.99946819591348e-19 8.29831488833932e-06 -2.22175430124215e-19 -6.68451495940658e-05)
(7.96264686069043e-05 -0.000118977152437934 -1.89418215262012e-19 6.0711605454981e-06 1.27979169468e-19 -8.56719250044862e-05)
(0.000107040057000586 -0.000143701873619864 -1.95081351223542e-19 -1.06067055841182e-06 1.52444213091044e-19 -0.000105947598983733)
(0.000142343099787409 -0.000165347877697391 2.53930187876013e-19 -1.53917500699525e-05 -1.79672664580667e-19 -0.000126913271928099)
(0.000186955010933792 -0.000181329341036229 -1.26219529259065e-19 -3.83987293346311e-05 2.58419973413021e-20 -0.000148511723626276)
(0.000239644244611126 -0.00018896428177677 2.90746044438976e-19 -6.92107667385276e-05 -1.14796789815343e-19 -0.0001703823580532)
(0.00029789114738348 -0.000185099353904804 4.65092180972596e-19 -0.000105949574276181 -1.67561706307283e-19 -0.000191884002149558)
(0.000358740522737996 -0.000167533474061623 3.74657321630722e-22 -0.000145870162178168 1.41674792920985e-20 -0.000212806512221327)
(0.000421091666618924 -0.000136908016271677 -1.35937907859049e-18 -0.000186377896431552 -1.96293924597552e-18 -0.000234643370136326)
(0.000499327631094428 -9.54861632869452e-05 -4.87528522277501e-17 -0.00023285941644461 4.26783929216793e-18 -0.000266388290170319)
(0.000569522312338694 -5.09562142749963e-05 -4.93465980389235e-17 -0.000273361691597929 6.11698390152577e-18 -0.000296071790320627)
(0.000646438244006422 -2.73370466918085e-05 -1.66751550965691e-19 -0.00031471194654525 2.35919553898288e-18 -0.000331626799471532)
(0.000716478064208887 -1.84464451504561e-05 1.41360896370372e-27 -0.000350497772187354 -1.50549784693803e-26 -0.000365870519888354)
(0.000756896924548165 -1.12136535831402e-05 2.62690756778826e-19 -0.000370639838624043 -2.44859028857014e-18 -0.000386141231969135)
(0.000775264600647321 -6.07303710774129e-06 -6.11829127770737e-17 -0.000379835762894907 -1.83344814694619e-18 -0.000395310232822074)
(0.000778254301432439 -2.2691548434766e-06 -6.26546770260531e-17 -0.000381393862047969 2.78053113421613e-18 -0.00039674140505952)
(0.000770239294893972 6.69683166342796e-07 -3.08175183319127e-19 -0.0003775102451538 2.41689685207521e-18 -0.000392611254584281)
(0.000753795957769224 2.94912959989861e-06 1.70803274551509e-23 -0.000369470652478069 1.64040790011082e-22 -0.000384210030754475)
(0.000730867510380592 4.7376572718466e-06 5.042258040169e-23 -0.000358237840295354 -1.05075280075492e-22 -0.000372517903537522)
(0.000702450499587053 6.11235473130066e-06 -2.93075289154298e-23 -0.000344307514016578 -5.28806159958978e-23 -0.000358035564159087)
(0.000670176974176192 7.14338587895053e-06 -2.54222830490357e-19 -0.000328483174386597 2.08955052737444e-18 -0.000341591312147186)
(0.000635592131781132 7.88991329095223e-06 5.43935661224701e-17 -0.000311523893692054 2.61286913007612e-18 -0.000323971037057857)
(0.000599597303888809 8.39904997545469e-06 5.41532970181735e-17 -0.000293872571938688 -1.3055982439368e-18 -0.000305633032870352)
(0.000562811599345622 8.70732500894001e-06 2.28973177684256e-19 -0.000275833595641046 -1.90090629431697e-18 -0.000286891927518701)
(0.000525753697838499 8.84697136141471e-06 -4.01519565129589e-22 -0.000257661666505484 -6.38611889696005e-24 -0.00026801161980592)
(0.000488852671317704 8.84626158162403e-06 5.73136732293678e-22 -0.000239567373205018 5.27678459120611e-23 -0.00024921052747738)
(0.000452461919760703 8.73026561515562e-06 -5.5116914290296e-22 -0.000221724073889589 1.16301566167142e-23 -0.000230668638358855)
(0.000416870112845812 8.52109583214359e-06 3.74395710748512e-22 -0.000204273311029167 -5.37519649477127e-23 -0.000212533035529357)
(0.00038231076127952 8.23810665432536e-06 1.77073488514202e-19 -0.000187329533401046 -1.71324221421584e-18 -0.000194922745206646)
(0.000348970288816893 7.89810171829791e-06 -4.47571713508991e-17 -0.00017098407465725 -2.60208128874708e-18 -0.000177932828972433)
(0.000316994999432707 7.51549745483365e-06 -4.36465800620321e-17 -0.000155308583898317 5.87630217432093e-19 -0.000161637919308975)
(0.00028649702427903 7.10255864813371e-06 -1.501525488617e-19 -0.000140357949892569 1.49235994319224e-18 -0.000146095241430736)
(0.000257559419552176 6.66960077650242e-06 2.2136959757849e-22 -0.00012617280775507 3.05361415499969e-23 -0.000131347203695188)
(0.000230240498997087 6.22521631979874e-06 -2.08066389251211e-22 -0.000112781665688488 -1.34338757857767e-23 -0.000117423602704727)
(0.000204577531834058 5.77650475265256e-06 1.13744659031496e-19 -0.00010020272070064 -1.2933516862772e-18 -0.000104343504951314)
(0.000180589914983053 5.32925545032462e-06 -3.28636028325797e-17 -8.84454152578722e-05 -2.16454480168741e-18 -9.2116861902828e-05)
(0.000158281835730672 4.88815651589546e-06 -3.1359527828018e-17 -7.75117417488859e-05 2.06326472556919e-19 -8.07458677988279e-05)
(0.000137644589025871 4.4569570252423e-06 -9.28507557687993e-20 -6.73973799637542e-05 1.07284442208978e-18 -7.02261391133881e-05)
(0.000118658566052594 4.03860055826502e-06 3.52456340754228e-25 -5.80926713414365e-05 -3.0287046981567e-24 -6.05477285759711e-05)
(0.000101294932521278 3.63537424348642e-06 3.16521650574805e-25 -4.95834401725123e-05 -2.92268392053324e-24 -5.16959820031303e-05)
(8.55170997929385e-05 3.24901277157889e-06 -6.03515397029231e-23 -4.18517152388495e-05 -1.57236316272624e-24 -4.3652287558122e-05)
(7.12820054368737e-05 2.88078936671953e-06 4.82787128210094e-23 -3.48763570312723e-05 3.73865807064608e-24 -3.63947288949818e-05)
(5.85412118152594e-05 2.5315989305265e-06 -1.50048123939984e-23 -2.86335955608865e-05 -6.23732606093598e-25 -2.98986457635947e-05)
(4.72418486848414e-05 2.20202732273868e-06 3.62253649505764e-25 -2.30974918886839e-05 3.42780908477588e-27 -2.41371149374905e-05)
(3.73274228380801e-05 1.89241245092374e-06 2.36536979518987e-23 -1.82403344293708e-05 -1.19455055990317e-24 -1.90813634271831e-05)
(2.87385119530743e-05 1.60289452076445e-06 -3.68293765726075e-23 -1.40329787059712e-05 7.12512568291388e-26 -1.47011224692845e-05)
(2.14133506719067e-05 1.33345917472614e-06 8.36546888704796e-25 -1.04451342766788e-05 1.50914950716982e-24 -1.09649265882707e-05)
(1.52883157728695e-05 1.08397418500358e-06 1.09365404168269e-23 -7.44560222335697e-06 -4.6928245704951e-25 -7.84036120591638e-06)
(1.02983217361703e-05 8.54222486892009e-07 -2.57232728366269e-23 -5.00246860890389e-06 -2.1464598197158e-24 -5.29426468901589e-06)
(6.37712970728272e-06 6.43933690336697e-07 3.46157348366701e-23 -3.0832555037801e-06 3.53550545473854e-24 -3.2928862388345e-06)
(3.45756394311338e-06 4.52807560980102e-07 -1.06089905763745e-23 -1.65502700929569e-06 -1.41588928579085e-24 -1.80199628086814e-06)
(1.47164147856283e-06 2.80533311909198e-07 6.98694357880356e-24 -6.84452937317021e-07 1.37662756522779e-24 -7.86952431905301e-07)
(3.50627334738269e-07 1.26817458824077e-07 7.13840183072172e-27 -1.37835054632606e-07 2.83167166928848e-27 -2.12728455186615e-07)
(2.4985436934518e-08 -8.59163009938781e-09 3.75305559244646e-25 1.89175516388196e-08 1.33161995230462e-24 -4.38898203104181e-08)
(4.24243730766123e-07 -1.25890597132707e-07 -5.46425375707545e-20 -1.79644754730033e-07 -7.42994234416427e-20 -2.44525611016283e-07)
(1.47693532805128e-06 -2.25228630395199e-07 -3.60552818096508e-18 -6.98482696730337e-07 2.70181726664764e-19 -7.78219142229361e-07)
(3.11074575311761e-06 -3.06725473176202e-07 -1.02012777564144e-17 -1.50213679329549e-06 1.05133023146475e-18 -1.60812647363141e-06)
(5.25314569243653e-06 -3.70430435455189e-07 -6.5243945925797e-18 -2.55504011193295e-06 1.04860123086397e-18 -2.69729631068339e-06)
(7.83086601817903e-06 -4.16241191112642e-07 6.82953355010102e-20 -3.82126818861863e-06 3.42626378326594e-19 -4.00839519073929e-06)
(1.0768702390398e-05 -4.44199252208055e-07 -1.50943580149198e-22 -5.26393210062431e-06 2.13608044488563e-23 -5.50311918890698e-06)
(1.39888458959567e-05 -4.54167688680351e-07 8.68753020019895e-23 -6.84486403858569e-06 2.51768405262523e-24 -7.14183909136704e-06)
(1.74105536191675e-05 -4.45855758411381e-07 -8.38070405618372e-20 -8.52445499608823e-06 -5.16298705864963e-19 -8.88343332655167e-06)
(2.09481512975832e-05 -4.18492903475466e-07 -1.37754961652692e-17 -1.02606907898114e-05 -2.61818957910737e-19 -1.06842549107388e-05)
(2.45106863154811e-05 -3.711718031749e-07 -1.45947856622257e-17 -1.20089367962734e-05 8.7764762719741e-19 -1.24979997443069e-05)
(2.79982306737394e-05 -3.01981412787253e-07 9.5175783901943e-20 -1.3720155055793e-05 6.65268487025536e-19 -1.42737930517742e-05)
(3.13031880613683e-05 -2.09667628116438e-07 -4.60509637120991e-23 -1.53414734716183e-05 9.1794149360722e-24 -1.59569270328845e-05)
(3.43014558732121e-05 -9.06061616269863e-08 4.19061273969612e-22 -1.68119460556336e-05 -2.04805635576358e-23 -1.74842640137939e-05)
(3.68580146238032e-05 5.64179694173222e-08 -3.94578346258392e-22 -1.80651067272537e-05 -3.70803939642707e-23 -1.87872711515296e-05)
(3.88089444732837e-05 2.37866152036693e-07 4.29073607489005e-22 -1.90203401481162e-05 4.02953679410691e-23 -1.97826689309488e-05)
(3.99446954865882e-05 4.52145082689593e-07 -1.04945887950596e-21 -1.95741893783802e-05 1.13589099715086e-23 -2.03643961783615e-05)
(4.00461362391968e-05 7.10990584108205e-07 6.23089587295116e-22 -1.96183209469099e-05 -1.11517308275683e-23 -2.04216881731231e-05)
(3.88993822105904e-05 1.00893798128997e-06 6.24941243861724e-22 -1.90460130630256e-05 3.45455224528106e-23 -1.98474143277845e-05)
(3.62285754404698e-05 1.36391540409915e-06 -1.01960250531773e-21 -1.77183065198833e-05 -3.40908684437348e-23 -1.85047169503044e-05)
(3.16993901170241e-05 1.76048133254674e-06 1.61857285594232e-25 -1.54640088833628e-05 1.18576759589861e-24 -1.62305115932193e-05)
(2.50729903503128e-05 2.17876375905436e-06 1.2285123638066e-23 -1.21587706886503e-05 1.04549494224682e-24 -1.29103461704623e-05)
(1.69891830860987e-05 2.64704574768911e-06 4.37160842062713e-21 -8.15309814169111e-06 5.50522190176115e-22 -8.83343464898338e-06)
(1.37428587107794e-05 2.84576442139205e-06 3.15874993029212e-20 -6.54882575712743e-06 4.59189438364705e-21 -7.1918751753215e-06)
(1.35814173015366e-05 3.99763564524056e-06 6.59729017382665e-20 -6.2682521247616e-06 1.57928714255834e-20 -7.31097166592416e-06)
(1.51044051643906e-05 5.66848608318404e-06 -2.43785145608828e-20 -6.67416779007782e-06 -1.24642222685229e-20 -8.42770880881358e-06)
(1.81668072245592e-05 8.7713477008676e-06 1.39805134190414e-19 -7.44701028764374e-06 3.69038469368133e-20 -1.07165816408936e-05)
(2.26953077862593e-05 1.36687014200041e-05 1.43951289050742e-19 -8.35362720270583e-06 5.8794642756062e-20 -1.43373789397072e-05)
(2.86599918277393e-05 2.12630703258305e-05 -1.58825525183668e-19 -8.94169830215337e-06 -6.72146059737571e-20 -1.97123792203893e-05)
(3.66550511270093e-05 3.27446688671401e-05 1.75835648791469e-19 -8.95235991895035e-06 7.87246344809814e-20 -2.76943820625257e-05)
(4.68816629778108e-05 4.93312115445507e-05 -1.81114203584289e-19 -7.81900992947965e-06 -1.01131070019709e-19 -3.90509365957072e-05)
(5.97947669185969e-05 7.18717004707102e-05 -1.84455963643823e-19 -5.32206521687822e-06 -1.12757167807892e-19 -5.44563631589167e-05)
(7.56041210874029e-05 0.000100982712888025 8.19447529993812e-20 -1.23746487984804e-06 5.47547563165917e-20 -7.43443506717997e-05)
(9.52157814767694e-05 0.000137264356962969 -1.0778164765344e-19 4.0770620934585e-06 -6.49141454339285e-20 -9.92630616735362e-05)
(0.000118247962943607 0.000179530837336345 1.94957921025128e-19 1.02813227821887e-05 1.51066614640513e-19 -0.000128490734650293)