/*--------------------------------*- C++ -*----------------------------------*\
  =========                 |
  \\      /  F ield         | OpenFOAM: The Open Source CFD Toolbox
   \\    /   O peration     | Website:  https://openfoam.org
    \\  /    A nd           | Version:  7
     \\/     M anipulation  |
\*---------------------------------------------------------------------------*/
FoamFile
{
    version     2.0;
    format      ascii;
    class       volScalarField;
    location    "3000";
    object      epsilon;
}
// * * * * * * * * * * * * * * * * * * * * * * * * * * * * * * * * * * * * * //

dimensions      [0 2 -3 0 0 0 0];

internalField   nonuniform List<scalar> 
15600
(
0.481208262160611
0.433505640202753
0.259049177978039
0.108109386815008
0.0276590378544619
0.0170184215768162
0.0175139245771393
0.0115133823043558
0.00722413530334689
0.0050761073430218
0.00389178700619279
0.00334331044128699
0.00323611198491517
0.00344230359197565
0.00395115029975445
0.00477815340255535
0.00593216858062069
0.00734455624351337
0.0090028701355594
0.0108690201581438
0.0128496834894814
0.0148379461814108
0.0169443805933517
0.0192373421918571
0.021616807419573
0.0240692653334065
0.0265954521415717
0.0293794399209178
0.0373294830744884
0.0486087777289879
0.058709973648172
0.0678887746098347
0.0764176021308532
0.0843691017061416
0.0918121462083628
0.0987991369467221
0.105309708400163
0.111170744612875
0.11646554217865
0.121211725283067
0.125424480421451
0.129124893449584
0.132337761865713
0.135090766398978
0.137413379188003
0.139335882674466
0.1408885733805
0.142101100029209
0.143002020983521
0.143618468651934
0.143975965864453
0.14409833249193
0.14400763306422
0.143724235693085
0.143266828032983
0.142652484423004
0.141896775972675
0.141013830903412
0.140016411558443
0.138916002440938
0.137722884359091
0.136446213734233
0.13509408277901
0.133673583060435
0.132190856249243
0.130651135138161
0.129058793385737
0.127417406949065
0.125729746267763
0.12399776689912
0.122222764006661
0.120405367975773
0.11854591048016
0.116644427236629
0.114700158872437
0.112710834555778
0.110673307925799
0.108582099066206
0.106430094978069
0.104207357261267
0.101903094077399
0.0995005098258376
0.0969821061599029
0.0943185813895348
0.0914824026964933
0.0884219318188759
0.0851158992183384
0.0815504984331717
0.0775968894648999
0.0730937713676879
0.0676047476521408
0.0603516358142727
0.0551111986806655
0.058096568488848
0.0634129900795772
0.07179159616635
0.0817080659491899
0.0939580078903432
0.108910410041798
0.127644996797682
0.148599974325845
0.171668380951538
0.195891249468213
0.220356536243144
0.240626976799714
0.25855350714158
0.276010179514066
0.294471124758412
0.316324666436049
0.347938937488259
0.398962314424521
0.465990317023877
0.551726893730255
0.672935346543428
0.833627206883638
0.958663692349342
0.8142698733345
0.630252833120473
0.486664029098779
0.481423675199388
1.75680197297782
1.5933730707258
1.06549178054016
0.451785484397536
0.110182496073465
0.0629067210363708
0.0644327122173624
0.0429436612324426
0.027019951982361
0.0189266110592985
0.0144529269148465
0.0123548443283355
0.0119126685514622
0.0126448992633989
0.014508079142954
0.0175594931819779
0.0218212563893892
0.0270509629346821
0.0331801251374714
0.0400211651443852
0.0471908798536333
0.0543641366993357
0.0618787347571171
0.069849882227504
0.0780103270891973
0.0864725465897575
0.0960925547618176
0.111172154431524
0.141534865963434
0.177062076670321
0.207391631813943
0.234320663293942
0.258802864292843
0.281134884009126
0.301633551242213
0.320542524313914
0.338091692800939
0.353779841424802
0.367768933002161
0.380130103395889
0.390958402603004
0.400352867597364
0.408413614639883
0.415240482486132
0.420931337740285
0.425580612128916
0.429278253601875
0.432108948273775
0.43415174278285
0.435479847660461
0.436160690023715
0.436256084709147
0.435822456917245
0.434911213591573
0.433569001012665
0.431838032430678
0.429756459499413
0.4273586192532
0.424675298329353
0.42173399715886
0.418559150075148
0.41517234239202
0.411592479576604
0.407835950648752
0.403916753952076
0.399846599481366
0.39563503345872
0.391289566108999
0.38681562887161
0.382216601430008
0.377494105954894
0.372648101798472
0.36767761486096
0.3625807317918
0.357353072122486
0.351986272603397
0.346469441014898
0.340785571793738
0.334912682150639
0.328821194985774
0.322477302949253
0.315831780043278
0.30882985636205
0.3013863597772
0.293412877041439
0.284757822669164
0.27547382825955
0.265499311045771
0.254350931779537
0.241561082199546
0.225884843567273
0.205010372536998
0.188987207824374
0.195677756625358
0.212417881308126
0.239221788627856
0.271764671338238
0.312224793677353
0.362066184253441
0.424125449825918
0.494036808212012
0.571231074963903
0.653042757821234
0.736468606376752
0.809220347014092
0.876264850067331
0.943377325472478
1.01532580109512
1.09997955126432
1.21814551743937
1.40100496670259
1.63897744485916
1.93915645446739
2.34471475047646
2.85426232262065
3.265630227715
3.06144510127586
2.57663480978706
2.02297600265914
1.8251701302868
2.53593337065284
2.2648623934115
1.74400181449999
0.92331972135359
0.23136807405781
0.116388353338921
0.116095651879004
0.0796890812248891
0.050918432769524
0.035685542905902
0.0272141693397078
0.0231637169589972
0.0222079694683598
0.0234527585873111
0.0267661190876604
0.0321681995060121
0.0395528185859131
0.0483049930120936
0.0580375844026628
0.0681624172893067
0.077920265360749
0.0868502967883782
0.0955167029301303
0.104342805301421
0.113503065411409
0.123867821123237
0.137107679662023
0.155023597677336
0.183875744828036
0.215245007277139
0.241920561494381
0.265495918340887
0.286727075886065
0.306027100546616
0.323698929477571
0.339838176710362
0.353855600619808
0.3665429277261
0.377933857527763
0.388092084019178
0.397093813582184
0.40501290274043
0.411921885255864
0.417891488004439
0.422990110228803
0.427283272810244
0.43083322650132
0.433698671831965
0.435934634891091
0.4375924351172
0.438719753389636
0.439360744141537
0.439556186674722
0.439343673498512
0.438757759570728
0.437830148836479
0.436589871950256
0.435063421533507
0.4332748968332
0.431246143212051
0.428996869167922
0.426544756638823
0.42390555320985
0.421093159950648
0.41811969992228
0.414995572171356
0.411729514964391
0.408328668532796
0.404798564258915
0.401143172367832
0.397364971451047
0.393465157506547
0.389443807416311
0.385299864209689
0.381031004801221
0.376631920053824
0.372093710974795
0.367403528021452
0.362544428196188
0.357494084051838
0.352224742605112
0.346698964468452
0.340870342273602
0.334674044440369
0.328031388411811
0.320826088624301
0.312847591273044
0.303951064478063
0.293944977584434
0.282274655334132
0.26830162160943
0.249382192639501
0.234483872499561
0.240397381782484
0.257737424288986
0.285216189917982
0.321004256553954
0.36626312364004
0.422827697779537
0.492383589196381
0.571964766951315
0.660167587410695
0.755025806303291
0.853606000220368
0.948617248350942
1.04344631902543
1.14402106044009
1.25594524260783
1.38717674549
1.55508739476886
1.78266409613948
2.05843799954269
2.37319957390273
2.72104756856069
3.06912499301207
3.3177564047541
3.27782900618937
3.10944054600901
2.89719400301226
2.74860575950692
2.2451316366839
2.01293899825423
1.73432752832996
1.25501248863642
0.427405709472377
0.167840267077732
0.14944131226151
0.107845621679932
0.0716663044496777
0.0507566818880924
0.0388702493197904
0.0330033723870717
0.0314190284267619
0.0328667980516578
0.0369467116174684
0.0433031818349796
0.0512948112611894
0.0598119130054162
0.0681761720117885
0.0758316612527405
0.0824688001700799
0.0882790460228864
0.0940997327055864
0.100558357719595
0.108168013582904
0.117856652967369
0.130686076879304
0.147191431472817
0.169335657677324
0.192348100086327
0.212422468241119
0.230443482650056
0.246827698517143
0.261827997312781
0.275558212622336
0.287846503267594
0.298772908644693
0.308744906127332
0.317760970770639
0.325866408336397
0.333110684303
0.339542837600003
0.345211935702912
0.350166469537385
0.354453848538742
0.358119929085715
0.361208663920735
0.363761859177399
0.365819033803963
0.367417361198654
0.368591674129843
0.369374505631989
0.369796165631899
0.369884828945115
0.36966662044842
0.369165720508173
0.368404453325673
0.367403369159381
0.366181331220451
0.364755597108395
0.363141888600809
0.361354455999114
0.35940613695132
0.357308412170081
0.35507145093979
0.352704148385529
0.350214165512723
0.347607962319881
0.344890802145564
0.342066805589605
0.339138870794658
0.336108815532133
0.332977965829707
0.329747348129476
0.326416589345319
0.322982643783582
0.319440158926468
0.315781380473464
0.311995676840581
0.30806901808094
0.303983126717665
0.299714175520492
0.295231045384285
0.290492543006338
0.285444875952927
0.280015036035634
0.274044948077916
0.26731287097245
0.259773576443303
0.251049583675443
0.24074095012
0.22714457132253
0.215870309826595
0.218469993819881
0.231243195197579
0.252392608590204
0.281043276921091
0.317557598214524
0.363157118334887
0.418554214018928
0.482088893635802
0.552392824650044
0.628132499429033
0.707219744589662
0.786365400952085
0.867276604723684
0.953946551749238
1.05073444051335
1.16334048694087
1.30146277556275
1.47509218437476
1.67564419987642
1.89093961331328
2.10232813633828
2.28956459292161
2.43278932555447
2.49275512200106
2.45736031414076
2.4384636697015
2.40168144111106
1.85102805832595
1.68082077608994
1.53024378789165
1.36581123245364
0.67127422357067
0.227998976753561
0.158127133066537
0.11749245416648
0.0821910894727759
0.0594260668974359
0.0459657271940544
0.0390086324431213
0.0367928647158405
0.0378924850355567
0.0415558620676907
0.0470189014251361
0.0533690081693039
0.0596491142719785
0.0654550389148144
0.0706102115038626
0.0751944098771637
0.0795951452671341
0.0844513923935569
0.0902708473306928
0.0975879276337815
0.107168284820413
0.119691882003087
0.135272787794284
0.15352165042414
0.171373458142662
0.187311477783586
0.201819891019069
0.215129412931031
0.227370346776735
0.238558812598069
0.248629771131298
0.25773244640284
0.26606709800434
0.273632986458851
0.280465089615605
0.286599691352504
0.292073598967155
0.296924113098657
0.301188457929378
0.304903303209183
0.308104351222629
0.310826020532566
0.313101229113381
0.314961256832475
0.316435680111496
0.317552354109148
0.318337427276524
0.318815385117939
0.319009099285894
0.318939885633979
0.318627572570795
0.31809055445535
0.317345850734022
0.316409166825357
0.315294949756363
0.314016436698481
0.312585699736908
0.311013689423937
0.309310275214399
0.30748427902225
0.30554350448381
0.303494767427614
0.30134390914002
0.299095792146646
0.296754349248221
0.294322379267892
0.291802061520157
0.28919591407017
0.286505830317947
0.283731931166447
0.280872595176426
0.277924521365761
0.274882756971565
0.271740251508954
0.268487602514445
0.265112189444118
0.261597786709438
0.257922621539693
0.25405862478811
0.249967769069128
0.245600616177904
0.240851877644048
0.235533431369497
0.229613378805251
0.222846113820676
0.214935647669285
0.204853767787753
0.196003141678381
0.196451917873847
0.205716068063629
0.222153223788452
0.245041303058026
0.274390042725388
0.31091741741345
0.35488726195352
0.405237143640408
0.460819601359932
0.520605762789609
0.583073213701645
0.646556653329677
0.711964193012144
0.781824987243895
0.859207862588921
0.948039025331025
1.0539021653471
1.18122172437699
1.32460654344737
1.47510452393877
1.61723652293257
1.73904865094269
1.83949243683106
1.9263961736876
1.95013540019254
1.96881556068404
1.95366675386534
1.55279235453736
1.42737647856049
1.32963626886687
1.33818711680426
0.878587787866144
0.312701090991995
0.15972985072132
0.114318176059451
0.0826433912003883
0.0608851643911327
0.0475960183999835
0.0405094955184264
0.0379859721600939
0.0386669258628096
0.0416365589196733
0.0459983902400979
0.0508903623313746
0.0556428020197133
0.0600427023376913
0.0640711671622653
0.0679108241094799
0.0719283434028231
0.0765945410634522
0.0823351420293546
0.0896520168728086
0.09915963139123
0.111288584222471
0.125807936082048
0.141379487991352
0.156026670516438
0.169367743749334
0.181635521701733
0.192957427402049
0.203402255675514
0.212961441153497
0.221640030299751
0.229554135892961
0.236812148174975
0.243417377561257
0.249398075479738
0.254783104522847
0.259602275299348
0.263886073234714
0.267665145522072
0.270969851480349
0.273829891206558
0.276274014909688
0.278329823669802
0.28002363739797
0.281380427278807
0.282423787984713
0.283175940042907
0.283657756622655
0.283888794559926
0.283887338355454
0.283670449089358
0.283254001838831
0.282652732624305
0.281880285643558
0.280949255617385
0.279871225282927
0.278656800422361
0.277315645164786
0.275856513807927
0.274287276851588
0.272614945374913
0.270845696761803
0.268984870641854
0.267036949060274
0.265005592729651
0.262893525257049
0.260703602809545
0.258439007559471
0.256101543868287
0.253691734731229
0.251208854574414
0.248650889410774
0.246014606504204
0.243295195483155
0.240486130381249
0.237578437176742
0.234560630106174
0.231417032852453
0.228127723079479
0.224665123700601
0.220994171377229
0.217041888132012
0.21266675007885
0.207831628621998
0.202370771536924
0.196058765831112
0.188283517897076
0.181138254049292
0.1804447538459
0.187314973296289
0.200506774566972
0.219343080545127
0.243666810638116
0.273868733751121
0.309983472806695
0.351243737339937
0.396699542553226
0.445500764663226
0.49648561304291
0.548741123939713
0.602839546401454
0.660456488585158
0.723798607400926
0.795694986536549
0.879632392065835
0.977580755177782
1.08597294550107
1.19855069645219
1.30365408685775
1.3932179968367
1.46976219149579
1.55359510185149
1.60392812476408
1.63756686468357
1.62683289439196
1.33624439281732
1.24051104343361
1.16728295035762
1.25087616629902
1.00064534064756
0.418794649682049
0.168705697502724
0.109077511282104
0.0792302304113642
0.0589882750389971
0.0464748802866902
0.0397449961242852
0.037221085213427
0.0376708491906939
0.0401483066948978
0.0437595388217638
0.0477512218071405
0.0516468074041573
0.0553275850904341
0.0588389250331018
0.0623886444594588
0.0663020781329749
0.0709525948948324
0.0767135277814706
0.0840337732862133
0.0933922811275493
0.105023583148415
0.118447144503949
0.132055208146713
0.144604823310569
0.156218499634727
0.166971132358209
0.176934742204333
0.186149232670469
0.194603762643817
0.202332049501123
0.209415393777587
0.215917885643236
0.221845698187775
0.227222360668027
0.232072028327723
0.236420019661695
0.240292428955075
0.243715657917121
0.246715986496141
0.249319227562151
0.251550452042272
0.253433799426969
0.254992348854231
0.256248049484566
0.257221686840036
0.257932878021471
0.258400088429748
0.258640653139805
0.258670812444196
0.25850574969037
0.258159620602651
0.257645592872864
0.256975885550222
0.256161803995585
0.255213771160832
0.254141357239533
0.252953309987703
0.251657581118389
0.250261347047062
0.24877102997993
0.247192320905064
0.245530156777597
0.243788686077975
0.241971320877236
0.240081120766468
0.238121587172949
0.236095665591049
0.234005172380571
0.23185094085198
0.22963285630299
0.22734978908629
0.224999675837583
0.222579245387123
0.220083943943103
0.217507352208743
0.21484124620109
0.212074250187291
0.209192030174065
0.206174445934074
0.202996192802768
0.19960541320977
0.195897459761244
0.191833623206361
0.187297351395901
0.182116683208376
0.175941582229684
0.170071328582279
0.168808403777199
0.174014532786154
0.184874761931522
0.200769545856596
0.221459147301595
0.24712132201269
0.277660821379904
0.312472605508592
0.350759989894333
0.391794831357355
0.434659592819866
0.478839097034818
0.524760435052989
0.573601252929143
0.62701180052576
0.687130541347979
0.756283513712997
0.835234314489933
0.921422684791941
1.01034731368277
1.09313105591262
1.16369447276609
1.22458734169584
1.29730132937332
1.35608642151155
1.3990290856909
1.39365215384355
1.17366143842172
1.0983413553817
1.03975753929946
1.14654849953476
1.06120622322961
0.529823075370383
0.18995328875404
0.106684530132823
0.0759120671182643
0.0567018297540227
0.0448817255325822
0.0385452018889679
0.0361019305472955
0.0364083159987332
0.0385361842724303
0.0416338137341684
0.0450439617477799
0.0484111432693336
0.0516710820007664
0.054901911583214
0.058314555054091
0.0621982644224719
0.0668659312960341
0.0726481281400877
0.0799323645886028
0.0890781014322985
0.100165993129125
0.112570883199841
0.124708065518222
0.135815819590496
0.146219797002442
0.155898165620266
0.164891944957348
0.173226527732811
0.180897587859748
0.187943283619674
0.194420871471748
0.200371211672257
0.205802078824218
0.21073356078003
0.215186592413206
0.21918340310337
0.222747075793567
0.225901108352692
0.22866899660569
0.231073903263861
0.233138391066685
0.234884237119682
0.236332304407498
0.237502469384241
0.238413583934012
0.239083465621905
0.239528907941563
0.239765696081153
0.239808636958125
0.239671590599775
0.239367495191411
0.238908401856519
0.238305509389341
0.237569195076627
0.236709042409202
0.235733867558337
0.23465174645006
0.233470037411047
0.232195397960984
0.230833803786996
0.22939056993511
0.227870304400449
0.226276865582894
0.224613720660752
0.2228844778616
0.221092586549266
0.21924078221814
0.21733092469227
0.215364091435358
0.213340613136062
0.211260009210388
0.209121069367027
0.206921651546709
0.204658647802155
0.202327536541768
0.19992249306844
0.197435348531193
0.194855867559706
0.192169479798669
0.189357994288747
0.186384242733277
0.183171094100118
0.179681905126685
0.175832094209773
0.171491905703793
0.166479988937144
0.161599819851317
0.160085760323561
0.164103908270618
0.17321696315638
0.186884850272076
0.204829825697363
0.227088031709252
0.253485893273246
0.283515256963425
0.316495909595962
0.351790397862739
0.388655897281354
0.426806351166719
0.466602475136509
0.508919862746453
0.555040256296022
0.606643734803972
0.665358560899355
0.731310621481297
0.802529595780034
0.875642394182266
0.943690479943145
1.00169362360082
1.0514120675456
1.11240807219739
1.17054735513215
1.21803565214121
1.21903881190414
1.04639067317788
0.985960403807123
0.938400463630266
1.04274429495276
1.08196355148876
0.638194146747373
0.22571679001746
0.108629107455409
0.0739604240222992
0.0550579477434931
0.0436607901604753
0.0375870066748188
0.0351863354163006
0.0353552748958912
0.0371940719548551
0.0399006118311012
0.0428931942425093
0.0458944607853717
0.0488747241767784
0.0519296981556473
0.0552646604616227
0.0591389380028333
0.0638230857862597
0.0696081879636898
0.0768194399037313
0.0857143035372799
0.0962588711503994
0.107765732222256
0.118786408891589
0.12886611407868
0.138391892279901
0.147284155400053
0.155565368943597
0.163253826200283
0.170350776842275
0.176891210644001
0.182915927765042
0.188452720069966
0.193510108250628
0.198105614287851
0.202257864681238
0.205986879484032
0.209313604963712
0.212259492147835
0.21484608501894
0.217094695012993
0.219026136227941
0.220660539241648
0.222017220767627
0.223114607685597
0.223970195220447
0.224600533345149
0.225021232702185
0.22524697698581
0.22529154924544
0.225167859700972
0.22488796860764
0.224463117724583
0.223903762349665
0.22321960003109
0.222419596336043
0.221512009381112
0.220504414641013
0.219403724738774
0.218216203249406
0.21694748266482
0.215602584262622
0.21418583974001
0.212701003253553
0.21115188614231
0.209542264603755
0.207875359702265
0.206153786579314
0.204379458696425
0.202553651486008
0.200677037735111
0.198749636654717
0.196770892237776
0.194739530333543
0.192653554223112
0.190509911943558
0.188304627335882
0.186032019068912
0.183684999504959
0.181253323657109
0.178724240518684
0.176071299847966
0.173237965956861
0.170191688329757
0.166869707752794
0.163176243999185
0.159039491893819
0.154947031827462
0.15336268376851
0.15651626680837
0.164278279536713
0.176201854746515
0.191997885155147
0.211607390111216
0.234808199094312
0.261153895162978
0.290053091921167
0.32093933125697
0.35320005985382
0.386688659573844
0.421733076890896
0.459018469522618
0.499574808304132
0.544762980091371
0.595763845575212
0.652355409164427
0.712939801773402
0.774881587116652
0.832545833360379
0.881582463518073
0.922853966764629
0.973372429033127
1.02689978820797
1.07522105505181
1.08199498279785
0.943171547058856
0.894135868060234
0.855931137058951
0.946576501682595
1.07349067586255
0.734185152729097
0.277634458220272
0.115706694413423
0.0737052332266767
0.0542811764979481
0.0429997074534018
0.037022704712232
0.0345913627557431
0.034599770512114
0.0361725529896214
0.0385541317072517
0.0412205117618456
0.0439457168893845
0.0467222779460672
0.0496543878143282
0.0529376863662048
0.0568063035087527
0.0614979152755955
0.0672660576111478
0.0743769632335782
0.0830038623402302
0.093032644432588
0.103769198040047
0.113934397510968
0.123263078680539
0.132137146017535
0.140443669715528
0.148192975282849
0.155399706620762
0.16206855407972
0.168229222527912
0.173911133252227
0.17913427158337
0.183907382024904
0.18824604476962
0.192167186380917
0.19568921651032
0.198831545008448
0.201614167690641
0.204057253768651
0.206180819330177
0.208004459976217
0.209547160809847
0.210827162361607
0.211861880364555
0.212667860397307
0.213260761085463
0.213655357138409
0.213865549713726
0.213904390161317
0.213784106287197
0.213516124325212
0.213111098029452
0.212578939320573
0.211928846264169
0.211169328000007
0.210308228079429
0.209352747551561
0.208309462329596
0.207184334905268
0.205982732400128
0.204709445456462
0.203368623826393
0.201964199896565
0.200500258805739
0.198980392828236
0.197407676516641
0.195784657440741
0.194113306024026
0.192395063065501
0.19063087517921
0.188821160703627
0.186965884533536
0.185064463380919
0.183115784915338
0.181117971054105
0.179068518662424
0.176963732874523
0.174799024855579
0.172567598395402
0.170261003322259
0.167860897365702
0.165326370588627
0.162629852757908
0.159724102644362
0.156540919551353
0.153079296052457
0.149623745585783
0.148073097946065
0.150590279693749
0.157283986096871
0.167805374827995
0.181870988198696
0.199358359578251
0.220015272609789
0.243436885341633
0.269100265140592
0.29649644297842
0.32511309934546
0.354891593878179
0.386141760293465
0.419424777060895
0.455593920993068
0.495779174961412
0.540860588615828
0.590428763448115
0.643138316050388
0.696843934697917
0.746828707024846
0.789097752824084
0.823706790075449
0.865274532027426
0.912749879717089
0.95945084692428
0.970630193667187
0.857156520114889
0.817121265686858
0.787118549629272
0.860477594534977
1.04371832559473
0.811519200647717
0.344718498539436
0.128919192474403
0.0753353532306665
0.0543947453352475
0.0429053335787008
0.0368560977387507
0.0343126655839155
0.0341287203374473
0.0354422704699914
0.0375370690625249
0.0399323563071935
0.0424357400135401
0.0450533195097921
0.0478918063524545
0.0511353241928415
0.0549962277135465
0.0596847302387537
0.0654188930799605
0.0724115776554617
0.0807685830542024
0.090323597663877
0.100409858343912
0.109916122962913
0.118688821242121
0.127074415366615
0.134941717159746
0.14229220434913
0.149138333963641
0.155486482231591
0.161360872458728
0.166782921884446
0.171767693213987
0.176323853245051
0.180465499417818
0.184208291721929
0.187569463767402
0.190567327381563
0.193220857551485
0.19554927397105
0.197571708260032
0.199306930240145
0.20077315144213
0.201987885725999
0.202967864176478
0.203728986302109
0.204286300436991
0.204654004962824
0.204845457593403
0.204873197347927
0.204748970823335
0.20448375419534
0.204087780516838
0.203570569901786
0.202940957785126
0.202207119838718
0.201376594630052
0.200456305230404
0.199452574318836
0.198371134868719
0.197217149287947
0.195995226813334
0.194709585411511
0.193364455824895
0.191963792111852
0.190511047101894
0.189009200697153
0.187460766734508
0.185867773739087
0.184231804497104
0.18255403227253
0.180835203459579
0.179075709879913
0.177275533352969
0.175434284577946
0.173551045800749
0.171624517956994
0.169652628150441
0.167632820648724
0.165561104079023
0.163432510288518
0.161234999598702
0.158939679610636
0.156524178751427
0.153952662916783
0.151179359200249
0.148248117336375
0.145313247467821
0.143855292980678
0.145901763628837
0.151737396622292
0.161109367842214
0.17375098121431
0.189498594855025
0.208082223904395
0.229126489570835
0.252161866029437
0.276727060043335
0.302388764350888
0.329145170952165
0.357294458245621
0.387315032614854
0.419933438955482
0.456107609988575
0.496508493194175
0.540633577630627
0.587319114299346
0.634746297073143
0.678833357248487
0.715767637406767
0.744941682757102
0.77895472958985
0.820125321551543
0.863766904831767
0.877889725908261
0.784019187556438
0.751228751911913
0.728354892605806
0.784886463345007
0.998548840280233
0.867611122758155
0.423136307397673
0.1496917223434
0.0791531785039857
0.055423214887478
0.043362806993809
0.0370681805969936
0.0343269421899545
0.0339142931663277
0.0349661726810432
0.0367961517149391
0.0389547264236064
0.0412704672390607
0.0437565563859803
0.0465180846643355
0.0497267753843617
0.0535756812929043
0.0582510482992181
0.0639379808573503
0.0708025472356759
0.078898167231495
0.0880279719677174
0.0975714643964808
0.106570016226748
0.114930081365558
0.122950151336245
0.130489914820751
0.137543633925177
0.144122079052927
0.150232064667639
0.155892778570295
0.161119887172728
0.165925184603511
0.170317096487017
0.174308584216276
0.177914366680329
0.181150833152874
0.184035534616375
0.186586761119094
0.188823112832682
0.190763156609784
0.192425142636012
0.193826799200451
0.194985186625751
0.19591660669435
0.196636550426235
0.197159675930031
0.197499808681635
0.197669950453353
0.197682300019477
0.197548280768518
0.197278563524757
0.196883092381651
0.196371115095964
0.195751212433444
0.195031323745133
0.194218769343283
0.193320270644098
0.192341963079155
0.19128940713028
0.190167609411345
0.188981174846427
0.187734574029252
0.18643203177644
0.185077348392499
0.18367387722188
0.182224538957647
0.180731836777233
0.179197857890775
0.177624310079048
0.176012559487548
0.174363628598224
0.172678267406606
0.170956930200697
0.16919983155788
0.167406854472644
0.165577703808466
0.163711654334785
0.161807835868518
0.159864573030639
0.157879765736208
0.155846374623091
0.153744854401345
0.151557880952003
0.149258226074957
0.146818306427058
0.144309264628738
0.141803254675528
0.140469642707463
0.14216822376717
0.147307107548869
0.15572282518295
0.167172543624849
0.181467582290977
0.198328685243105
0.217402417884378
0.238261467881859
0.260484792579563
0.283702575371874
0.307950271392526
0.333517293325847
0.360825748756597
0.390509695438033
0.42339592478156
0.460006955818707
0.499804885559004
0.541762175448792
0.584272957186134
0.623687669567122
0.656262341628531
0.680878407028549
0.708515805433686
0.743664187749794
0.783508696372251
0.799302214427938
0.720896301601585
0.693999188144855
0.677173737556081
0.719309344699863
0.942703286301484
0.902432386247821
0.506340318325898
0.179916505988501
0.0856772413218884
0.0574546731118364
0.0443803554923933
0.0376517125080535
0.0346192229157854
0.0339358511366854
0.0347160885324757
0.0362919020624114
0.0382345724013456
0.0403840707421889
0.0427554932302552
0.0454492499519546
0.0486242370170944
0.0524560275577767
0.0571094682338912
0.0627396146988422
0.0694725374060852
0.0773222286392673
0.0860773084715194
0.0951724901536835
0.103782182331982
0.111838979291947
0.11958962495718
0.126890031164437
0.133727969607292
0.140112576045505
0.146050216484608
0.151555651231319
0.156640308677545
0.161313697861392
0.165583923933104
0.169463080550605
0.172965201136526
0.176106095443434
0.17890282493405
0.181373266580532
0.18353566911792
0.185408295040367
0.187009124674002
0.188355640180377
0.189464671519206
0.190352299814162
0.191033801704349
0.191523624779896
0.191835387685772
0.191981889339689
0.191975128615968
0.191826334530756
0.191545990698876
0.191143859829459
0.190629014810251
0.190009869822974
0.189294207161873
0.188489199659558
0.187601429193951
0.186636897627634
0.185601040043251
0.18449883766069
0.183335083098474
0.182114331097692
0.180840685488029
0.179517841851999
0.178149085542982
0.176737303772018
0.175285005601836
0.173794337518975
0.172267119813118
0.170704886639769
0.169108897504067
0.167480208735784
0.165819676813262
0.164128029519855
0.162405828017921
0.16065362751962
0.158871838309032
0.157061008079758
0.155221396379817
0.153353295210333
0.151453692739233
0.149510375302908
0.147510724494263
0.145434127833047
0.143267664493569
0.141097845685806
0.138946796133366
0.137752134290202
0.139195117644251
0.143764034978917
0.151375207565834
0.161813843953284
0.174878069210638
0.19028543514394
0.207699677123642
0.226727306619518
0.246981746755056
0.268145011360665
0.290277212373297
0.313660391216377
0.33867790502436
0.365895392760817
0.396037983422441
0.429521896311062
0.465810016851743
0.503978845332465
0.542552442807115
0.578164060146993
0.607062642250897
0.627766675193238
0.650000124856593
0.679629080625771
0.715390687157411
0.731850648604183
0.665803537454676
0.643725970568622
0.631885089953802
0.662774318213336
0.880489596601631
0.917614133059524
0.587833563312021
0.221603940140715
0.0957143080220009
0.0606701364537914
0.0460032961438189
0.0386200840890997
0.0351891087863471
0.0341843947574987
0.03467510169189
0.0359981003539468
0.0377356110938003
0.0397311994794946
0.0419974794683121
0.0446277358943609
0.0477677895751854
0.0515771103120753
0.0562012533442665
0.0617683694694524
0.0683710784110087
0.0759947448841003
0.0844249416105267
0.0931542607155332
0.101470486566476
0.109310265433796
0.116869041746405
0.124001886131477
0.130690292254976
0.136941629295079
0.142761126078779
0.148159707409253
0.153145581689353
0.157726573791821
0.161910439314674
0.165708616840255
0.169134663179476
0.172204028598982
0.174933512522989
0.177340808231927
0.179444040116042
0.18126138748028
0.182810773238687
0.184109635228298
0.185174762977721
0.186022194386715
0.186667156650622
0.187124039315086
0.187406394925701
0.1875269491961
0.187497619657298
0.187329549616394
0.187033135214825
0.18661804854341
0.186093269720408
0.185467120405048
0.184747292368812
0.183940870246328
0.183054348134527
0.182093639380052
0.181064149495785
0.179971021269309
0.178819181453341
0.17761308940724