/*--------------------------------*- C++ -*----------------------------------*\
  =========                 |
  \\      /  F ield         | OpenFOAM: The Open Source CFD Toolbox
   \\    /   O peration     | Website:  https://openfoam.org
    \\  /    A nd           | Version:  7
     \\/     M anipulation  |
\*---------------------------------------------------------------------------*/
FoamFile
{
    version     2.0;
    format      ascii;
    class       volScalarField;
    location    "3000";
    object      k;
}
// * * * * * * * * * * * * * * * * * * * * * * * * * * * * * * * * * * * * * //

dimensions      [0 2 -2 0 0 0 0];

internalField   nonuniform List<scalar> 
15600
(
0.000244414318033656
0.000220419813016711
0.000130963503291189
5.27753087100726e-05
1.24973668331442e-05
7.24925615415545e-06
7.39265320794876e-06
5.02994037093983e-06
3.37307209368867e-06
2.59729888572002e-06
2.22164395532478e-06
2.12420355898965e-06
2.26743361130928e-06
2.63816043058688e-06
3.28788674798463e-06
4.28850154605787e-06
5.7250973539906e-06
7.66151120459434e-06
1.02109332023264e-05
1.34718215593305e-05
1.74767920187288e-05
2.21878746965037e-05
2.76944035936613e-05
3.39792876529919e-05
4.06985292644714e-05
4.75078871586354e-05
5.39719279653289e-05
5.99699600696833e-05
7.59473814583331e-05
9.88844007454951e-05
0.000119422451093891
0.000138082790218243
0.000155420607996795
0.000171584242156733
0.000186714192404722
0.000200916286697722
0.000214146349657273
0.000226055352112912
0.00023681364659349
0.000246455976902595
0.00025501334632059
0.000262528641516154
0.000269052322428104
0.000274640729182315
0.000279353859940559
0.000283253371703025
0.000286400956353936
0.000288856989114687
0.000290679623668268
0.000291924106813478
0.000292642400021885
0.000292882991685867
0.000292690789415992
0.000292107236568026
0.00029117035301403
0.000289914866183108
0.000288372438136061
0.00028657179255611
0.000284538871533811
0.000282297014839143
0.000279867111228693
0.000277267760721794
0.000274515399135588
0.00027162442668826
0.000268607309295162
0.00026547466549618
0.000262235376234341
0.00025889669633897
0.000255464227295707
0.000251941936132803
0.000248332446429949
0.000244637026905128
0.00024085637085755
0.000236990592087249
0.000233038101031184
0.000228994257329058
0.00022485263675475
0.000220602023844506
0.000216227950863809
0.000211710253946607
0.000207027009757379
0.000202144090660741
0.000197025969886848
0.000191613147446611
0.00018584972859189
0.000179630884210074
0.000172915108125734
0.000165671237675578
0.000157638480770652
0.00014848939174228
0.000137337247125088
0.000122600056564261
0.000112314734207549
0.000117714679301193
0.000124969787404913
0.000134951740806144
0.000144091899621786
0.000153315447451074
0.000162581445778147
0.000173300497187815
0.000183839510499331
0.000194315916604055
0.000203910204933429
0.000212180143568729
0.000215440057621183
0.000214586880757469
0.000210936083674764
0.0002057001148081
0.000200324678317864
0.000197955223826335
0.000203471909717523
0.00021696374789283
0.00024056346021361
0.000283727712249726
0.000354714818403134
0.000432509852251325
0.000397223311963765
0.000318540976718241
0.000247446687885781
0.000244526982892714
0.00425827715684991
0.0038524424957684
0.00240480871009477
0.00100268832130496
0.000241749997525408
0.000135531145505683
0.000137910254903248
9.49408455353155e-05
6.36942287481234e-05
4.88336914519832e-05
4.15622357582119e-05
3.95066602660355e-05
4.19554870379079e-05
4.86154856283167e-05
6.03992143062938e-05
7.86094360382747e-05
0.000104795959061214
0.000140105707208056
0.000186527384703692
0.000245739212074523
0.000318156657753505
0.000402891373522509
0.000501080795436208
0.000611832776575391
0.000728887005703197
0.000846164857495167
0.000957761042610517
0.00107276809480864
0.00134608503944804
0.00171048180081235
0.00202663979621814
0.00230735838836098
0.00256344875348516
0.00279821120299327
0.00301484259570864
0.00321560522201285
0.00340087731623122
0.0035660981371552
0.00371418785641625
0.0038460790430649
0.00396259632825284
0.00406462936648985
0.00415309312338493
0.00422891558398578
0.00429301994641822
0.0043463085500146
0.00438965077332475
0.00442387334010177
0.00444975498755268
0.0044680229107536
0.00447935199068884
0.00448436553644501
0.00448363644700815
0.00447769031445932
0.00446700740787777
0.00445202525037352
0.00443314209082851
0.00441071899855145
0.00438508213058268
0.00435652510826652
0.00432531097653778
0.00429167420144965
0.00425582219791413
0.00421793679815578
0.00417817534297757
0.00413667164556241
0.0040935373010121
0.00404886266360889
0.00400271610766235
0.00395514469343995
0.00390617711293072
0.00385582399194151
0.00380408742786642
0.00375096062026957
0.00369641015645373
0.00364036048136502
0.00358270881285586
0.00352328462251931
0.00346186858678888
0.00339815934545185
0.00333181654414468
0.00326232896288334
0.00318914057937003
0.0031113566879327
0.00302807987831132
0.00293771116254267
0.00283976088700345
0.00273356209366093
0.00261488692894613
0.00247868050333204
0.00231094024609622
0.00208720795996695
0.00192736368160262
0.0020069363546437
0.0021248640625789
0.0022879431437248
0.00244197463009177
0.00260036134789934
0.00276331173096338
0.00295000257445767
0.00313472160310429
0.00331812133523523
0.00348712969643845
0.00363295387502728
0.00369934312414828
0.00370063726795689
0.00365673772966393
0.00358626981897045
0.00351311537447972
0.00349070742551238
0.00359851144219007
0.00383389506077265
0.00423064975673758
0.00492454871978917
0.00599498753997247
0.00707665742453726
0.00662693668646835
0.00551919676340156
0.00440814532176732
0.00428099338147377
0.0147463345886737
0.0135885022820264
0.0101657801863974
0.00525966224389744
0.00139052115288855
0.000702579993516319
0.000710637422960816
0.000501245874068364
0.000339414934042343
0.000259647816141568
0.000220105899702183
0.000207977381824106
0.00021947910835085
0.000252867601638734
0.000312348131555069
0.000403620363542353
0.000532591135720138
0.000702244182646567
0.000917255369164615
0.00117802617604886
0.00147780242694742
0.00180607803418094
0.0021593258096884
0.00252824421369395
0.00289535157600815
0.00325502669585521
0.0036231617225036
0.00406348607057617
0.00482599475836811
0.00569091736232585
0.0064093403279153
0.00703366217258928
0.00759398915194493
0.00810113943186754
0.0085647540752321
0.00899073575057051
0.00937945587130409
0.009728355776902
0.0100418870440066
0.0103222265905171
0.0105714751522894
0.0107916668741344
0.0109847728885838
0.0111527013716581
0.0112972885299281
0.0114202864763412
0.0115233547532233
0.0116080533567442
0.0116758406428013
0.0117280728415923
0.0117660067186228
0.0117908036025105
0.0118035336823607
0.0118051823329869
0.0117966545662919
0.011778780075623
0.0117523190966151
0.0117179661436958
0.0116763538851467
0.0116280570033069
0.0115735953298677
0.0115134368774355
0.0114480002031975
0.0113776565702029
0.0113027315129736
0.0112235061849892
0.0111402192059803
0.0110530677753669
0.0109622064881646
0.0108677487831161
0.0107697703867256
0.0106683127741783
0.0105633936954891
0.0104550056673489
0.0103430952142319
0.0102275196307997
0.0101080507948265
0.00998433983755015
0.00985593237110558
0.00972221350781964
0.00958244113254933
0.00943556019922826
0.0092803205138743
0.0091148582758927
0.00893705965780585
0.0087435282826109
0.00853239078551355
0.00830126120988355
0.00804091716568697
0.00773912520495424
0.00736631989990131
0.00686052406419933
0.00647346101558417
0.00661117630215924
0.00692120094639366
0.00735759812775464
0.0078177661558859
0.00831455971556067
0.00885272095712987
0.00946025600018929
0.0100813330021968
0.0107019429814342
0.0112911767821441
0.0118191305439678
0.0121711360127004
0.0123668132555223
0.0124515108977544
0.0124682930508271
0.0124722745089586
0.0125926984473094
0.0130252609391134
0.0137625227517117
0.0148487487681074
0.0164830649495692
0.0187018686393937
0.0206571462808882
0.0199797501073223
0.0179968981160799
0.0159113741744193
0.0152317138327328
0.023185080580516
0.0218064723200318
0.0179800609602353
0.0116666958203398
0.00432925493769576
0.00204890359614534
0.00197922394647856
0.00146232234098536
0.00101892644880979
0.000782873352285976
0.000662163301094901
0.000620185048314509
0.000645606743728794
0.000731296049421847
0.000883529893978705
0.00110853051177323
0.00140812229063439
0.00177365321248958
0.00219851455775131
0.00266908228901387
0.00316568768355427
0.00367312703734317
0.00419279546068012
0.00471936561398984
0.00524116495043668
0.00576684573353418
0.00633859367243863
0.007056814218153
0.00814444598446652
0.00929645317963713
0.0102544292949422
0.0110927666845086
0.0118445632416913
0.0125247086533607
0.0131449092010895
0.0137114321694395
0.0142252997740065
0.01468846470956
0.0151053493325004
0.0154788662063198
0.0158118357712788
0.0161069499486409
0.0163667974710612
0.0165938645520974
0.0167905280578648
0.0169590442561162
0.0171015415141277
0.0172200148513762
0.0173163255543318
0.0173922027695223
0.0174492482784228
0.0174889425413413
0.0175126511332908
0.0175216327860003
0.0175170455416945
0.0174999534029837
0.0174713333178948
0.0174320800620762
0.0173830111779901
0.0173248717212859
0.0172583381457985
0.0171840219224666
0.0171024724939988
0.0170141799295304
0.0169195769328039
0.0168190405799391
0.0167128944752723
0.0166014099864216
0.0164848056990469
0.0163632495515671
0.0162368612376131
0.016105718226412
0.015969874944977
0.015829354407989
0.0156840959107241
0.0155339269224625
0.0153785790263294
0.0152176505059794
0.0150506054539726
0.0148767225297329
0.0146951002788386
0.0145044949960103
0.0143033695111684
0.0140895281221912
0.0138603294308247
0.0136117739906202
0.0133404373121797
0.0130422880015634
0.0127070645617252
0.0123184986279767
0.0118465101680005
0.0112089535535831
0.0107024006935045
0.0108266240969182
0.0112458743729407
0.0118554925048574
0.0125428725128246
0.0133060108551129
0.0141514126739509
0.0150993658327115
0.016083654472602
0.0170725831239853
0.0180252280106361
0.0188955705193982
0.0195575879628192
0.0200248947529083
0.0203554963239307
0.0206077468081619
0.0208532267828031
0.0212491514615041
0.0220264227247135
0.0231720567174517
0.02470223513086
0.0267791635869128
0.0294367723912336
0.0317971303306187
0.0311782590318335
0.0283726252375509
0.025255809161748
0.023915317857605
0.0292329290235999
0.0277698333339074
0.0239001186624618
0.0173771248810938
0.00862904683063982
0.0042726524935465
0.00374222426466373
0.00290890166696475
0.00212277685946167
0.00165449023098871
0.00140033577048815
0.0012965669193637
0.00132108915884704
0.00145477465138109
0.00169645872237303
0.002040655954171
0.00247400626928156
0.00297260074574635
0.00352165996112186
0.00410281674216317
0.00469701709661673
0.005295887923776
0.00590800845641533
0.00653280487346674
0.00716618993500438
0.00782866658452691
0.00857862772665492
0.00952844473698444
0.01084318126708
0.0121793517383981
0.0132987541829262
0.0142847987076296
0.0151703359169266
0.0159720867827675
0.0167022407552271
0.0173669845509514
0.0179694340251978
0.0185136901250452
0.0190041231535379
0.0194441261732755
0.0198369643468303
0.0201857525088601
0.0204934858182385
0.020763037897701
0.0209971529770276
0.0211984337211333
0.0213693334608346
0.0215121509900621
0.0216290306786467
0.0217219650782077
0.0217928007876666
0.0218432456452561
0.0218748764677735
0.0218891480725772
0.0218874005726186
0.0218708670527587
0.0218406811927566
0.0217978829609968
0.0217434242899157
0.0216781744212214
0.0216029243098192
0.0215183906476945
0.0214252192647434
0.0213239881599352
0.0212152098742955
0.0210993335978538
0.0209767475928113
0.0208477803850314
0.0207127009967693
0.0205717215133694
0.0204249976505888
0.0202726498104274
0.0201147731671681
0.0199514023037867
0.0197824726012516
0.0196078077481789
0.0194271271606928
0.0192400135592749
0.0190459007017873
0.0188440273859526
0.0186334224278242
0.0184127689504294
0.0181804008303834
0.0179339982379327
0.0176706771990495
0.0173862278146804
0.0170762558692581
0.0167353444213358
0.0163532179572842
0.0159121509291378
0.0153821506597625
0.0146763212927096
0.0140991679642623
0.0141867776456497
0.0146587154758841
0.0153709206761136
0.016206436970327
0.0171488950695509
0.0182030121033255
0.0193804576857528
0.0206122579332049
0.0218542163836907
0.0230589114602147
0.0241701802241163
0.0250639719322395
0.0257467995449769
0.0262813068043507
0.0267352162054102
0.027190431060999
0.027813824125887
0.028844059164334
0.0302777636994457
0.0321148111364297
0.0344800936489167
0.0374131405512131
0.0400708602089527
0.0397900878766973
0.0366995947273992
0.0326136445072975
0.0303505799723115
0.0341675911427232
0.0325439586845299
0.028675029060181
0.0220675122007587
0.0131556851137227
0.00714055554239629
0.00561532938213902
0.00448835820773786
0.00342106528844121
0.00271510017145494
0.00230488019279915
0.00211321676557641
0.00210894976051996
0.0022612177197143
0.00255668190049355
0.00297447604052734
0.00348658032557167
0.00406018422238994
0.00467793291241805
0.00532187726879183
0.00597706768065329
0.0066414876641691
0.00732756364609887
0.00803783008565743
0.0087743560841013
0.00956567425614372
0.0104780149748829
0.0116208874432715
0.0131045439618275
0.0145738005424963
0.015816194309558
0.0169167779501102
0.0179073237485432
0.0188051432369295
0.0196224567595937
0.0203658527457871
0.0210400750303215
0.0216500917359115
0.0222003192086867
0.0226944974041246
0.0231362114529721
0.0235288913198074
0.0238758409832689
0.0241802333397101
0.0244450999872738
0.0246733173383722
0.0248675976130962
0.0250304832028124
0.0251643466834591
0.0252713938685199
0.0253536702648936
0.0254130690017417
0.0254513394583425
0.0254700969616198
0.0254708309503947
0.0254549134056045
0.0254236069457758
0.0253780711678983
0.0253193689067533
0.0252484720606858
0.0251662664157747
0.0250735560062864
0.0249710668926482
0.0248594505082225
0.0247392863473898
0.0246110844397407
0.0244752880444338
0.0243322745641624
0.0241823566019976
0.0240257845646137
0.0238627534402179
0.0236934314275353
0.0235179408302352
0.02333632052667
0.0231485119980813
0.0229543457117044
0.0227535421327116
0.022545684240864
0.0223301983207906
0.0221063120851318
0.0218730263630749
0.0216290000180684
0.0213725117041498
0.0211012027485519
0.0208120809223509
0.0205008791695199
0.0201626988650169
0.0197911266123454
0.0193760012401146
0.0188992369589845
0.0183310345787467
0.0175858779247498
0.0169624229341697
0.0170083627520102
0.0175033355961565
0.018280026744336
0.0192174740752435
0.0202872382628049
0.0214902674767996
0.0228305927309821
0.0242386575130994
0.0256615278596329
0.0270466865192635
0.0283311011586624
0.0293957202768787
0.0302416442338582
0.03093270272499
0.0315424957304292
0.0321603350161502
0.0329570214558692
0.0341704387857735
0.0358101477542423
0.0378695912396112
0.0404443227817044
0.0435680921715623
0.0464114155285944
0.0464424738994436
0.0434164053412608
0.0388456323635419
0.0357874643520021
0.0384772587730808
0.0366361647232342
0.0327903544694525
0.0260998827171572
0.0173135694576234
0.0103336732983575
0.00748009098041918
0.00599116451116071
0.00470627329640431
0.00379402801551408
0.00323355473909909
0.00294712628574411
0.00289738584611005
0.00304663941615809
0.00337001259459585
0.00383200393578506
0.00439241134290224
0.00501342432690872
0.00567707312741457
0.00636701834537433
0.00707223106744754
0.00779520689273604
0.00855041898544429
0.00934273103378135
0.0101789570822619
0.0110925574036905
0.0121518967846268
0.0134568458820278
0.0150728572703598
0.0166473442805334
0.017991507477648
0.0191881393436568
0.0202675940393295
0.0212472232378826
0.0221392189867913
0.0229507512109774
0.0236875347086692
0.0243549110133529
0.0249573974319
0.0254990026008496
0.0259835659873229
0.0264147749097428
0.0267961896551321
0.0271312349910522
0.0274231869374264
0.0276751567289372
0.0278900801330285
0.0280707109671938
0.028219620662984
0.0283392014281724
0.0284316730137176
0.0284990911536395
0.0285433568606004
0.0285662266553777
0.028569321450139
0.0285541356036343
0.0285220454299434
0.0284743160919657
0.0284121083689589
0.0283364849143157
0.0282484154581562
0.0281487814767122
0.0280383803094578
0.0279179287865595
0.0277880662071412
0.027649357194084
0.0275022946665157
0.0273473001767658
0.0271847259820698
0.0270148595324627
0.0268379475205359
0.0266541957317881
0.0264637394775956
0.0262666282991725
0.0260628154390776
0.0258521441971864
0.0256343443548869
0.0254090087047318
0.0251755698818034
0.0249332617051741
0.0246810825239786
0.0244176957429461
0.0241413694415733
0.0238497549749953
0.0235398328115065
0.0232073626589518
0.0228472108544319
0.0224523869766444
0.0220128129709404
0.0215105645986812
0.0209162580587057
0.0201483855139562
0.0194939071855292
0.0194990773266607
0.0200003387925714
0.0208187916912642
0.0218298375171201
0.0229949341049582
0.0243102601298431
0.0257730512295561
0.0273137004208245
0.0288728770635306
0.0303937437866207
0.0318083671186288
0.0330033837212838
0.0339762878588116
0.0347907261711525
0.0355241512154051
0.0362715173561019
0.0372051841218446
0.0385587703559828
0.0403533501641852
0.0425803797646856
0.0453122618211943
0.0485679465468766
0.0515108461598267
0.0517556884619518
0.0488911745304219
0.0441761927976479
0.0405781317783518
0.0423368882821684
0.0402685823753099
0.0364542718896127
0.0297524785835972
0.0209809590135448
0.0135748477938074
0.00939067069008126
0.00740316813977579
0.00591902593248468
0.00482929363307815
0.0041321156465016
0.00375435775695756
0.00365327612155843
0.00378791952664571
0.00412407729515521
0.00461361232671249
0.00520639115499829
0.00586149160681794
0.0065609347131824
0.00729012509843177
0.00804127717254608
0.00882011054482584
0.00964233747093903
0.010514639496628
0.0114472396911443
0.0124760521237869
0.0136678898946971
0.0151107228320349
0.0168354429381865
0.0184990291877806
0.019932306018322
0.0212138395494233
0.0223724637699156
0.0234253339362468
0.0243846133004379
0.0252580110248931
0.0260517797174604
0.0267714397305901
0.0274216306450473
0.0280065801991862
0.0285303431070622
0.0289968293624556
0.0294098242658611
0.029772976446358
0.03008978119592
0.0303635619545625
0.0305974576289047
0.030794414953744
0.0309571873547826
0.0310883379828897
0.0311902466113497
0.0312651184430138
0.0313149939486673
0.0313417595548537
0.0313471571543627
0.0313327937322134
0.0313001502721975
0.0312505891406949
0.031185361324755
0.0311056131083425
0.0310123916403595
0.0309066499021483
0.0307892511388303
0.0306609727452349
0.0305225095305667
0.0303744769783209
0.0302174144931248
0.0300517847626285
0.0298779772500111
0.0296963296324395
0.0295071343584281
0.0293106207326762
0.0291069383902567
0.0288961516220763
0.0286782293104721
0.0284530317767995
0.0282203040593272
0.0279796555816722
0.0277305350179913
0.0274721943135569
0.0272036471417774
0.0269235814124019
0.0266302854301875
0.0263214537397697
0.0259940947111376
0.0256440500112487
0.0252661169918361
0.0248530357489808
0.0243948161643119
0.0238739553618213
0.0232617125926569
0.0224816716969574
0.0218067974690855
0.021774571712309
0.0222722673783603
0.0231176852336498
0.0241834715916786
0.0254225762861548
0.0268259450761727
0.0283846482559325
0.0300290247500162
0.0316948374391778
0.0333214743828528
0.0348374426326981
0.0361351314561183
0.0372098924804509
0.0381247269561481
0.0389597601625939
0.0398143867202462
0.0408612254895879
0.0423279204182934
0.0442446017936864
0.0466022178863268
0.0494536689640662
0.0527969460134514
0.0557759686099699
0.0561431918295598
0.0534391936447509
0.0487518882350071
0.0448313698690802
0.0458265622597942
0.0435509551201844
0.0397697019301925
0.0331604221581408
0.0242813119374475
0.0167215164395206
0.0114251229745368
0.00877741872610078
0.00707235154387741
0.00582150094881914
0.00499847759480135
0.00453401791548544
0.00437931995437003
0.00449178451748101
0.00483027416760266
0.00533635786700687
0.00595174466620486
0.00663322668219187
0.00736292131199501
0.0081278132149569
0.00892271666519676
0.00975571806040707
0.01064333810259
0.0115935999007196
0.0126189245182234
0.0137557901716862
0.0150672623188983
0.0166294326796421
0.018447186056619
0.0201900455098923
0.0217044674187012
0.0230638543271242
0.0242955010291623
0.0254162429872508
0.0264382343498036
0.0273695720099114
0.0282168029506974
0.0289855460260003
0.0296805669821196
0.0303062797903081
0.0308669294162212
0.0313666265225417
0.031809361938165
0.0321989910496755
0.0325392133553886
0.0328335511771905
0.0330853346983751
0.0332976929057189
0.0334735515438097
0.0336156358361198
0.0337264773833992
0.0338084232375433
0.0338636462133128
0.0338941559988077
0.0339018092324833
0.0338883196926645
0.0338552676092895
0.0338041074925645
0.0337361758255608
0.0336526981662721
0.0335547950856572
0.0334434874308198
0.0333197010507476
0.0331842709259007
0.0330379447372257
0.0328813865625088
0.032715180378102
0.0325398279175722
0.032355764355979
0.0321633790399526
0.0319629987186206
0.0317548711837217
0.0315391637761164
0.0313159585663706
0.0310852430811354
0.0308468979124581
0.0306006879861945
0.030346244695122
0.0300830401558109
0.0298103536270697
0.0295272275370248
0.029232389451387
0.0289241708156909
0.0286003340567073
0.0282579558351197
0.0278929998483802
0.0275003040628529
0.0270725514477826
0.0265998766063489
0.0260653321355044
0.0254410124068721
0.0246559088977938
0.0239684146421707
0.023903091864068
0.0243913830459994
0.0252535561894054
0.0263606884542823
0.0276585640771856
0.0291327441579755
0.0307686193395653
0.0324962928210456
0.0342476068537007
0.0359586150803158
0.0375552668960852
0.0389355861126675
0.0400938971546932
0.0410924909647439
0.0420134618910307
0.0429597450641411
0.044103323950411
0.0456649254004836
0.0476813063336146
0.0501429387699746
0.0530850795912773
0.0564806070306628
0.0594477890066909
0.0598658174307241
0.0572919606383452
0.0527085068007436
0.0486175129222954
0.0489967211371299
0.046546267774288
0.0427994750083634
0.0363711034897043
0.0273444477227571
0.0197388316349812
0.0136352615785527
0.0101768754665569
0.008196651765424
0.00678833587969542
0.00584558432541264
0.0052971315910262
0.00508678579811194
0.00517063224197615
0.00550278128093188
0.00601682834422107
0.00664769897974863
0.00735018282222156
0.00810636952344734
0.00890454583587154
0.00974156407436148
0.010627264152416
0.0115786794327695
0.012604707117598
0.0137189271093868
0.0149570123694528
0.016377123559684
0.0180445108160723
0.0199446889826201
0.02176062113192
0.023351010440031
0.0247836971654116
0.0260844337620932
0.0272696581229908
0.0283515024920933
0.029338304569598
0.0302367645677976
0.0310525648973675
0.0317905932670346
0.0324554274704173
0.0330514861704236
0.0335830665088673
0.0340543527269739
0.0344693967286101
0.0348320935391345
0.0351461569527637
0.035415102023697
0.0356422343463705
0.0358306469167917
0.0359832223839935
0.0361026398514931
0.0361913841421385
0.0362517565504321
0.0362858863634115
0.0362957414611288
0.0362831390957853
0.0362497556320193
0.036197134783469
0.0361266957569898
0.0360397408017956
0.0359374615343624
0.0358209445001887
0.0356911761750288
0.0355490473299003
0.0353953569464949
0.0352308163792143
0.0350560530765271
0.0348716110239988
0.0346779800031545
0.0344755927440768
0.0342647993299402
0.0340458687864499
0.0338189887459204
0.0335842615327485
0.0333416958334395
0.0330911952334385
0.0328325483642267
0.0325654130268338
0.0322892907817069
0.0320034956496947
0.0317071094924404
0.0313989117138898
0.031077294833264
0.0307401086416329
0.030384529015382
0.0300066724984032
0.0296014939840024
0.0291617655503265
0.0286777976171558
0.0281332681365171
0.027501254247471
0.0267160720442704
0.0260218281111616
0.0259279146324449
0.0264034544078047
0.02727507804847
0.028413574444161
0.0297587369351581
0.0312907841613684
0.0329898217968687
0.0347854885820528
0.036606382870262
0.0383856079616729
0.0400473517204483
0.0414951082820333
0.0427230146629611
0.0437927586610535
0.0447879686876101
0.0458143885310484
0.0470426474714275
0.0486859904516963
0.0507856400605358
0.0533309255257235
0.0563402237181768
0.0597586128266857
0.0626765888798011
0.0630915704887361
0.0606126546445287
0.0561611704429213
0.0519991131012878
0.0518863118677211
0.0492960308855167
0.0455874145416762
0.0393957834076631
0.0302593869574526
0.0226036924252539
0.0160253773747318
0.011661556678652
0.00932421683417697
0.00774920118477049
0.00668809330971794
0.00605592068580787
0.00578717921809044
0.00583616701241601
0.00615400739576604
0.00666849363272404
0.00730889308474466
0.0080280111565324
0.00880766180642586
0.00963710045000294
0.0105147229245161
0.0114516467309547
0.0124651714142274
0.0135646265835245
0.0147638999941802
0.0160969221853724
0.0176164744402299
0.0193783435748885
0.0213536675481711
0.0232386934204275
0.0249016549256012
0.026404712612542
0.027772063874273
0.0290196856981343
0.0301596477483792
0.0312004081513117
0.0321487351709739
0.0330103580805539
0.0337902789871555
0.0344932239415434
0.0351237742552741
0.0356864045896374
0.0361854854654867
0.0366252597435087
0.0370098136766705
0.0373430491962168
0.0376286635930028
0.037870136903043
0.0380707275026321
0.0382334737501277
0.0383612006129359
0.038456529062111
0.0385218872591842
0.0385595224926111
0.0385715122661895
0.0385597757209584
0.0385260838422029
0.0384720680699398
0.0383992288996042
0.0383089439096168
0.0382024744992558
0.0380809717562936
0.0379454817136043
0.0377969499514691
0.0376362259267344
0.0374640676149243
0.037281145482097
0.037088060527626
0.0368853514112741
0.0366734795649785
0.0364528200604712
0.0362236653260344
0.0359862254407903
0.0357406251351647
0.0354868964776842
0.0352249684553215
0.0349546566872886
0.0346756492335002
0.0343874821778435
0.0340895105998817
0.033780864618027
0.0334603856632432
0.0331265418779924
0.0327772863887789
0.0324099187155745
0.0320207327828537
0.0316048556220132
0.0311552497499275
0.0306624555741227
0.0301108113439725
0.0294744821619026
0.0286928205793137
0.0279963574386661
0.0278782333958373
0.0283392876009106
0.0292150223699853
0.0303771750064463
0.0317606025334288
0.0333403506535951
0.0350915775376177
0.0369432334150539
0.0388211546298786
0.0406558453960017
0.042370392232786
0.0438735955349195
0.0451600396379151
0.0462909843674336
0.0473513069353615
0.048448921338447
0.0497524726167348
0.0514673575611422
0.0536373789817501
0.0562497356256069
0.0593060784807295
0.0627221641158976
0.0655611217431745
0.0659328742488918
0.0635168665536122
0.0592021140009215
0.055032100093149
0.0545279926722812
0.051830703004659
0.0481661419065369
0.0422358938999341
0.033084178439499
0.0253210313685209
0.0185502572938813
0.0132854418310981
0.0104876144583388
0.00872243361821901
0.00753948700939593
0.00682146970707688
0.00649064294824407
0.00649845032971874
0.00679429584673106
0.00730213895213498
0.00794658982054739
0.00867837866789949
0.00947872612821634
0.0103374915782271
0.0112541683989297
0.0122407551211245
0.013314591517418
0.0144850412711414
0.0157656308979085
0.0171879507812223
0.0187993512368343
0.0206475439205326
0.0226929936251043
0.0246445723527009
0.0263779138658085
0.0279495274797591
0.0293820256745895
0.030690864446893
0.031887990704892
0.0329818886022143
0.0339793402262421
0.0348861120300584
0.0357073118967355
0.0364478031976721
0.0371123226703572
0.0377055172532759
0.0382319401955597
0.0386960231453466
0.0391020424763208
0.0394540879048537
0.0397560390950688
0.0400115509195535
0.0402240476203139
0.0403967237091595
0.0405325503580454
0.0406342848696571
0.0407044823136535
0.0407455078987971
0.0407595485134564
0.0407486248666277
0.0407146022173236
0.0406591993235168
0.040583997507534
0.0404904492013727
0.0403798851306512
0.0402535204994593
0.0401124604813702
0.0399577050796485
0.0397901539578627
0.0396106115553526
0.0394198038837472
0.03921838677159
0.039006935657203
0.038785938925661
0.0385557981989727
0.0383168311462444
0.0380692722031832
0.0378132704615375
0.0375488834109667
0.0372760676509509
0.036994668701571
0.0367044083241055
0.0364048615651648
0.0360954300498282
0.0357752996561202
0.0354433825994642
0.0350982347650202
0.0347379260452385
0.0343598993158085
0.033960645809272
0.0335355056526332
0.0330777021730627
0.0325780572245327
0.032021583984797
0.0313836037134075
0.0306081208144823
0.0299129946352655
0.0297747629868468
0.0302206670207828
0.0310965676366336
0.0322762615524442
0.0336906281693532
0.0353097959388257
0.0371042770417127
0.0390021348836081
0.0409268010103603
0.0428065113310186
0.0445638150155531
0.046112670724513
0.0474485950039069
0.0486326127092373
0.0497506435814148
0.0509121834114947
0.0522833162286017
0.054061329238928
0.0562909450091271
0.0589561312890204
0.0620416930315481
0.0654335260619867
0.068169292589138
0.068467851237613
0.0660879810453979
0.0619037916325717
0.0577649257213565
0.0569498583392788
0.0541743256763435
0.0505607792067452
0.0448944985487004
0.0358480764376565
0.0279124129467458
0.0211332880712434
0.015093753471911
0.0117210506317073
0.0097259569865817
0.00841216099389561
0.00760374265084157
0.00720609787932554
0.00716619584122951
0.00743243697193546
0.00792666657973111
0.00856979178922845
0.00931036075495054
0.0101286480655681
0.0110147329009754
0.0119687931420664
0.0130033587147187
0.0141355956163459
0.0153745568122651
0.0167329016911518
0.0182395371291991
0.019936574836345
0.0218649007467702
0.0239770336783092
0.0259935988966278
0.0277959750285463
0.0294351228673352
0.0309320224997844
0.0323015503471877
0.0335554552032119
0.0347021738128238
0.0357484649082531
0.0367001246372595
0.0375623580414719
0.0383401580893297
0.0390384125139932
0.0396619380601254
0.0402154698554091
0.0407036287456573
0.0411308825611794
0.0415015107446746
0.0418195776069213
0.0420889152312471
0.0423131160342446
0.0424955327955521
0.0426392847625786
0.0427472671452694
0.0428221632339013
0.0428664572428944
0.0428824462589759
0.0428722531981297
0.0428378381363605
0.0427810075563397
0.0427034238846575
0.0426066146014743
0.0424919799083722
0.0423607992450672
0.0422142369976668
0.0420533476694639
0.0418790813160901
0.0416922983269032
0.0414937836599907
0.0412842372136145
0.0410642655467976
0.0408343859871685
0.0405950282127813
0.0403465367920752
0.0400891722790291
0.0398231099574066
0.0395484346594607
0.0392651326790097
0.0389730820872608