/*--------------------------------*- C++ -*----------------------------------*\
  =========                 |
  \\      /  F ield         | OpenFOAM: The Open Source CFD Toolbox
   \\    /   O peration     | Website:  https://openfoam.org
    \\  /    A nd           | Version:  7
     \\/     M anipulation  |
\*---------------------------------------------------------------------------*/
FoamFile
{
    version     2.0;
    format      ascii;
    class       volScalarField;
    location    "3000";
    object      kDeficit;
}
// * * * * * * * * * * * * * * * * * * * * * * * * * * * * * * * * * * * * * //

dimensions      [0 2 -3 0 0 0 0];

internalField   nonuniform List<scalar> 
15600
(
0.0206919552729063
0.0186407425287184
0.0111391146530557
0.00464870363304533
0.00118933862774186
0.000731792127803095
0.000753098756816988
0.000495075439087301
0.000310637818043916
0.000218272615749937
0.00016734684126629
0.000143762348975341
0.000139152815351352
0.000148019054454953
0.000169899462889441
0.00020546059630988
0.00025508324896669
0.000315815918471075
0.000387123415829054
0.000467367866800183
0.000552536390047698
0.000638031685800662
0.000728608365514122
0.000827205714249854
0.000929522719041639
0.00103497840933648
0.00114360444208758
0.00126331591659946
0.001605167772203
0.00209017744234648
0.00252452886687139
0.00291921730822289
0.00328595689162669
0.00362787137336409
0.0039479222869596
0.00424836288870905
0.004528317461207
0.00478034201835361
0.00500801831368196
0.00521210418717188
0.00539325265812238
0.00555237041833209
0.00569052376022566
0.00580890295515604
0.00590877530508411
0.00599144295500202
0.00605820865536151
0.00611034730125598
0.00614908690229139
0.00617559415203315
0.00619096653217146
0.00619622829715299
0.00619232822176146
0.00618014213480264
0.00616047360541828
0.00613405683018918
0.00610156136682503
0.0060635947288467
0.00602070569701306
0.00597338810496034
0.00592208402744092
0.00586718719057202
0.00580904555949741
0.0057479640715987
0.00568420681871745
0.00561799881094094
0.00554952811558668
0.0054789484988098
0.0054063790895138
0.00533190397666215
0.00525557885228642
0.00517743082295822
0.00509747415064687
0.00501571037117504
0.00493210683151481
0.00484656588589846
0.00475895224080934
0.00466903025984686
0.00457649408405696
0.0044809163622345
0.00438183304532815
0.00427852192251102
0.00417023056487582
0.00405569899975
0.00393374331594921
0.00380214306821166
0.00365998366638855
0.00350667143262638
0.0033366662469907
0.00314303216881058
0.00290700414904205
0.00259512034001373
0.00236978154326862
0.00249815244502046
0.00272675857342182
0.00308703863515305
0.00351344683581516
0.00404019433928476
0.00468314763179732
0.00548873486230033
0.00638979889601134
0.00738174038091613
0.00842332372713314
0.00947533105845519
0.0103469600023877
0.0111178008070879
0.0118684377191048
0.0126622583646117
0.0136019606567501
0.0149613743119951
0.0171553795202544
0.0200375836320267
0.023724256430401
0.0289362199013674
0.0358459698959964
0.0412225387710217
0.0350136045533835
0.0271008718241803
0.0209265532512475
0.0207012180335737
0.0755424848380461
0.0685150420412096
0.0458161465632268
0.0194267758290941
0.00473784733115898
0.00270498900456395
0.00277060662534658
0.00184657743299503
0.00116185793524152
0.000813844275549834
0.000621475857338399
0.000531258306118427
0.000512244747712875
0.000543730668326154
0.000623847403147023
0.00075505820682505
0.000938314024743735
0.00116319140619133
0.00142674538091127
0.00172091010120857
0.00202920783370623
0.00233765787807144
0.00266078559455603
0.00300354493578267
0.00335444406483548
0.00371831950335957
0.00413197985475815
0.00478040264055552
0.00608599923642764
0.00761366929682378
0.00891784016799955
0.0100757885216395
0.0111285231645923
0.0120888000123924
0.0129702427034152
0.0137833285454983
0.0145379427904404
0.0152125331812665
0.0158140641190929
0.0163455944460232
0.0168112113119292
0.0172151733066866
0.017561785429515
0.0178553407469037
0.0181000475228322
0.0182999663215434
0.0184589649048806
0.0185806847757723
0.0186685249396626
0.0187256334493998
0.0187549096710198
0.0187590116424933
0.0187403656474415
0.0187011821844376
0.0186434670435446
0.0185690353945192
0.0184795277584747
0.0183764206278876
0.0182610378281622
0.018134561877831
0.0179980434532314
0.0178524107228568
0.017698476621794
0.0175369458778963
0.0173684204199393
0.0171934037776988
0.017012306438725
0.016825451342687
0.0166330720414792
0.0164353138614903
0.0162322465560604
0.0160238683773343
0.0158101374390213
0.0155909714670474
0.0153661821012669
0.0151354097219461
0.0148981859636406
0.0146537795871307
0.0144012453324775
0.0141393113843883
0.0138665240268179
0.013580766541861
0.0132796838235682
0.0129596134704196
0.0126167537127819
0.012244586374774
0.0118453746151607
0.0114164703749682
0.0109370900665201
0.0103871265345805
0.00971304827339275
0.00881544601909092
0.00812644993644808
0.00841414353489038
0.0091339688962494
0.0102865369109978
0.0116858808675443
0.0134256661281262
0.015568845922898
0.0182373943425145
0.0212435827531165
0.0245629362234478
0.0280808385863131
0.0316681500742003
0.0347964749216059
0.0376793885528952
0.0405652249953165
0.0436590094470903
0.0472991207043659
0.052380257249893
0.0602432135682115
0.0704760301289439
0.0833837275420978
0.100822734270488
0.122733279872688
0.140422099791745
0.131642139354862
0.110795296820844
0.0869879681143429
0.0784823156023322
0.109045134938072
0.0973890829166944
0.0749920780234994
0.0397027480182044
0.00994882718448582
0.00500469919357361
0.00499211303079717
0.00342663049267023
0.00218949260908953
0.00153447834495379
0.00117020928160744
0.000996039829236881
0.000954942687139473
0.00100846861925438
0.0011509431207694
0.00138323257875852
0.00170077119919426
0.00207711469952002
0.0024956161293145
0.00293098394344019
0.00335057141051221
0.00373456276190026
0.0041072182259956
0.00448674062796109
0.00488063181269059
0.00532631630829919
0.005895630225467
0.00666601470012544
0.00790665702760555
0.00925553531291697
0.0104025841442584
0.0114163244886581
0.0123292642631008
0.0131591653235045
0.0139190539675356
0.0146130415985456
0.0152157908266518
0.0157613458922223
0.0162511558736938
0.0166879596128246
0.0170750339840339
0.0174155548178385
0.0177126410660022
0.0179693339841909
0.0181885747398385
0.0183731807308405
0.0185258287395567
0.0186490428887745
0.0187451893003169
0.0188164747100396
0.0188649493957543
0.0188925119980861
0.018900916027013
0.018891777960436
0.0188665836615413
0.0188266963999686
0.018773364493861
0.0187077271259408
0.0186308205638276
0.0185435841581182
0.0184468653742206
0.0183414245354694
0.0182279387880236
0.0181070058778779
0.0179791470966581
0.0178448096033683
0.0177043691434688
0.0175581327469102
0.0174063382631333
0.0172491564118168
0.017086693772395
0.0169190017727815
0.0167460837189014
0.0165678941610166
0.0163843332064525
0.0161951725623144
0.0160000295719162
0.0157983517049224
0.0155894104124361
0.015372245614229
0.0151456639320198
0.0149080554721434
0.0146574247177649
0.0143909839109359
0.0141053497017079
0.013795521810845
0.0134524464247409
0.0130698957725567
0.0126396340361307
0.0121378101793677
0.0115369697292055
0.0107234342834985
0.0100828065174811
0.0103370874166468
0.0110827092444264
0.0122642961664732
0.01380318303182
0.0157493143165217
0.0181815910045201
0.0211724943354444
0.0245944849789066
0.0283872062586599
0.0324661096710415
0.0367050580094758
0.0407905416790905
0.0448681917180935
0.049192905598924
0.0540056454321367
0.05964860005607
0.0668687579750608
0.0766545561339976
0.0885128339803357
0.102047581677817
0.11700504544811
0.131972374699519
0.142663525404426
0.140946647266143
0.133705943478387
0.124579342129527
0.118190047658798
0.0965406603774075
0.086556376924932
0.0745760837181883
0.0539655370113662
0.0183784455073122
0.00721713148434245
0.00642597642724494
0.0046373617322371
0.00308165109133614
0.00218253732118797
0.00167142072075099
0.00141914501264408
0.00135101822235076
0.00141327231622128
0.00158870859955114
0.00186203681890412
0.00220567688423114
0.0025719122592329
0.00293157539650691
0.00326076143386784
0.00354615840731344
0.00379599897898411
0.00404628850634021
0.0043240093819426
0.00465122458406489
0.00506783607759689
0.00561950130581007
0.00632923155333115
0.00728143328012493
0.00827096830371206
0.0091341661343681
0.00990906975395239
0.0106135910362372
0.0112586038844496
0.0118490031427604
0.0123773996405065
0.0128472350717218
0.0132760309634753
0.0136637217431375
0.0140122555584651
0.014323759425029
0.0146003420168001
0.0148441132352252
0.0150571581901076
0.0152415154871659
0.0153991569506858
0.0155319725485916
0.0156417599446282
0.0157302184535704
0.0157989465315421
0.0158494419875833
0.0158831037421755
0.0159012351221716
0.0159050476446399
0.015895664679282
0.0158741259818514
0.0158413914930039
0.0157983448738534
0.0157457972424794
0.015684490675661
0.0156151012098348
0.0155382416079619
0.0154544638889068
0.0153642617233135
0.015268072390411
0.0151662783805778
0.0150592091170471
0.0149471423797549
0.0148303044922592
0.014708872640353
0.0145829714441703
0.0144526790678817
0.0143180525306774
0.0141791359695674
0.0140359133418487
0.013888253682694
0.0137359268338381
0.013578599360359
0.013415814104145
0.0132469677774804
0.0130712744488596
0.0128877095473812
0.0126949349515242
0.0124911793492725
0.0122741296659759
0.0120406465495322
0.0117839327673504
0.0114944534518153
0.011170263787062
0.0107951320980441
0.01035186085516
0.0097672165668688
0.00928242332254359
0.0093942097342549
0.00994345739349589
0.0108528821693788
0.0120848609076069
0.0136549767232245
0.0156157560884001
0.0179978312028139
0.0207298224263395
0.0237528914599519
0.0270096974754484
0.0304104490173555
0.0338137122409396
0.0372928940031184
0.0410197017252172
0.0451815809420739
0.0500236409384575
0.0559628993491981
0.0634289639281148
0.0720527005946859
0.0813104033724711
0.0904001098625461
0.0984512774956294
0.104609940998842
0.107188470246045
0.105666493508053
0.104853937797165
0.103272301967776
0.0795942065080159
0.0722752933718674
0.0658004828793411
0.0587298829955065
0.0288647916135388
0.00980395600040312
0.00679946672186107
0.00505217552915865
0.00353421684732936
0.00255532087658974
0.00197652626934434
0.00167737119505421
0.00158209318278114
0.00162937685652894
0.0017869020689107
0.00202181276128085
0.00229486735128007
0.00256491191369507
0.00281456667333702
0.00303623909466609
0.00323335962471804
0.00342259124648677
0.00363140987292295
0.00388164643521979
0.00419628088825261
0.00460823624727777
0.00514675092613272
0.00581672987515423
0.00660143096823804
0.00736905870013445
0.00805439354469418
0.00867825531381997
0.00925056475603434
0.00977692491139962
0.010258028941717
0.0106910801586458
0.0110824951953221
0.0114408852141866
0.0117662184177306
0.012059998853471
0.0123237867281577
0.0125591647555877
0.0127677368632422
0.0129511036909633
0.0131108420379949
0.013248487102573
0.0133655188829003
0.0134633528518754
0.0135433340437964
0.0136067342447943
0.0136547512266933
0.0136885093728905
0.0137090615600714
0.0137173912692934
0.0137144150822611
0.0137009856205442
0.0136778938415801
0.0136458715815629
0.0136055941734903
0.0135576828395236
0.0135027067780347
0.0134411850886871
0.0133735886452293
0.0133003418342192
0.0132218239979568
0.0131383706928038
0.0130502749993874
0.0129577880930208
0.0128611190623058
0.0127604370176735
0.0126558623085194
0.0125474886453668
0.0124354243050173
0.0123197507036717
0.0122004730401572
0.0120775215925863
0.0119507544187277
0.0118199585497773
0.011684830814885
0.0115449669081211
0.0113998241460971
0.0112487048285058
0.0110906727262068
0.0109245208658887
0.0107486140699725
0.0105608264956499
0.0103566307386941
0.0101279375488884
0.0098733752886258
0.00958238289428908
0.00924223284977927
0.00880871201487338
0.00842813509217038
0.00844743246857543
0.00884579092673605
0.00955258862290342
0.0105367760314951
0.0117987718371917
0.0133694489487783
0.0152601522640014
0.0174251971765375
0.0198152428584771
0.0223860477999532
0.0250721481891707
0.0278019360931761
0.0306144602995222
0.0336184744514875
0.0369459380913236
0.0407656780892341
0.0453177931099253
0.0507925341482107
0.056958081368237
0.063429494529367
0.0695411704861007
0.0747790919905355
0.0790981747837357
0.0828350354685667
0.0838558222082793
0.0846590691094136
0.0840076704162098
0.0667700712451066
0.0613771885781009
0.0571743595612754
0.057542046022583
0.0377792748782442
0.0134461469126558
0.00686838358101674
0.00491568157055639
0.0035536658216167
0.00261806206881871
0.00204662879119929
0.00174190830729233
0.00163339680288404
0.00166267781210081
0.00179037203354595
0.00197793078032421
0.00218828558024911
0.00239264048684767
0.00258183620052073
0.00275506018797741
0.00292016543670764
0.00309291876632139
0.00329356526572844
0.00354041110726225
0.00385503672553077
0.00426386414982289
0.00478540912156624
0.00540974125152804
0.00607931798362814
0.00670914683220683
0.00728281298122137
0.00781032743317454
0.00829716937828811
0.0087462969940471
0.00915734196960036
0.0095305213028893
0.00987082784339731
0.0101829223715239
0.0104669472351341
0.0107241172456287
0.0109556734944824
0.011162897837872
0.0113471011490927
0.0115096012574491
0.011651703613655
0.011774685321882
0.0118797826411166
0.0119681824178015
0.0120410164081127
0.0120993583729887
0.0121442228833427
0.012176565421845
0.0121972835347742
0.0122072181660768
0.0122071555492845
0.0121978293108424
0.0121799220790697
0.0121540675028451
0.012120852282673
0.0120808179915476
0.0120344626871658
0.0119822424181615
0.0119245727420858
0.0118618300937408
0.0117943529046183
0.0117224426511212
0.0116463649607575
0.0115663494375997
0.0114825888095918
0.011395240487375
0.0113044215860531
0.0112102549208104
0.0111128773250572
0.0110123663863364
0.0109087445934429
0.0108019807466998
0.0106919882446633
0.0105786280796808
0.0104616934057757
0.0103409036063937
0.0102158727985999
0.0100861070945655
0.00995093241265547
0.00980949209241761
0.00966060031912582
0.00950274936922084
0.00933280118967649
0.00914467025339057
0.00893676003074592
0.00870194317608772
0.00843052693073779
0.00809619126957427
0.00778894492411957
0.00775912441537371
0.00805454385174044
0.00862179130637978
0.00943175246344047
0.010477672857439
0.0117763555512982
0.0133292893306879
0.0151034807056173
0.0170580803297887
0.0191565328805187
0.0213488813608451
0.0235958683294076
0.0259221004952625
0.0283996290091618
0.0311233401182398
0.0342148844210716
0.0378241928588309
0.0420359724726446
0.0466968366565459
0.0515376799474442
0.0560571257348834
0.0599083738639782
0.0631997742343188
0.0668045893796139
0.0689689093648556
0.0704153751813936
0.0699538144588543
0.0574585088911447
0.0533419748676453
0.0501931668653777
0.0537876751508577
0.043027749647845
0.0180081699363281
0.00725434499261714
0.00469033298513048
0.00340689990768866
0.00253649582667688
0.00199841985232768
0.00170903483334426
0.00160050666417736
0.00161984651519984
0.0017263771878806
0.00188166016933584
0.00205330253770704
0.00222081271837876
0.00237908615888867
0.00253007377642338
0.00268271171175673
0.00285098935971792
0.00305096158047779
0.00329868169460323
0.00361345225130717
0.00401586808848462
0.00451601407538183
0.0050932272136698
0.00567837395030868
0.00621800740235445
0.00671739548429325
0.00717975869140301
0.00760819391478631
0.00800441700483018
0.00836796179368412
0.00870027812854827
0.00900486193243624
0.00928446908265915
0.00953936502207431
0.00977056150872516
0.00997909721809209
0.0101660608454529
0.0103325744450682
0.0104797732904362
0.0106087874193341
0.0107207267851725
0.0108166694378177
0.0108976533753597
0.0109646710007319
0.0110186661278363
0.0110605325341216
0.0110911137549233
0.0111112038024792
0.0111215480850116
0.0111228449351004
0.0111157472366859
0.011100863685914
0.0110787604935332
0.0110499630786596
0.0110149575718102
0.0109741921599158
0.0109280783612999
0.0108769923294712
0.0108212759880907
0.0107612379230237
0.010697154289137
0.0106292697989177
0.0105577967414367
0.0104829135013529
0.0104047667977212
0.0103234881929581
0.0102392282484368
0.0101521136204151
0.0100622224123646
0.00996959045663516
0.00987421282102856
0.00977604093071049
0.00967498606101608
0.00957090755164628
0.00946360958955342
0.00935281614497594
0.00923817358664688
0.00911919275805353
0.00899525729748481
0.00886550117516517
0.00872883629051904
0.0085830327680201
0.0084235907697335
0.0082488457978735
0.00805378611002372
0.00783101737796015
0.0075654880358764
0.00731306712903799
0.00725876136241954
0.00748262490980461
0.00794961476305545
0.00863309047183361
0.00952274333396857
0.0106262168465457
0.0119394153193359
0.0134363220368694
0.0150826795654563
0.0168471777483663
0.0186903624912543
0.0205900811724972
0.0225646987072785
0.0246648538759532
0.0269615074226077
0.0295466132779631
0.0325201910896589
0.0359150755230671
0.0396211754460535
0.0434449344883592
0.0470046354042425
0.0500388623289419
0.052657255692921
0.0557839571630529
0.0583117161249967
0.0601582506847086
0.0599270426152727
0.0504674418521339
0.0472286782814131
0.0447095741898766
0.0493015854799947
0.0456318675988733
0.0227823922409265
0.00816799141642373
0.00458743479571139
0.00326421888608537
0.00243817867942298
0.00192991419790104
0.00165744368122562
0.00155238301353371
0.00156555758794553
0.0016570559237145
0.00179025399056924
0.00193689035515454
0.00208167916058135
0.00222185652603295
0.0023607821980782
0.00250752586732591
0.00267452537016629
0.00287523504572947
0.00312386951002377
0.00343709167730992
0.00383035836158883
0.00430713770455238
0.00484054797759318
0.00536244681728352
0.00584008024239132
0.006287451271105
0.00670362112167144
0.00709035363316595
0.00744874069251086
0.00777859627796918
0.00808156119564596
0.00836009747328515
0.00861596210190706
0.00884948938944135
0.00906154311354128
0.00925302347376785
0.00942488633344491
0.00957812425912338
0.00971374765916574
0.00983276685404465
0.00993617784034601
0.0100249508158674
0.0101000221961463
0.0101622890895224
0.0102126061835224
0.0102517841091625
0.0102805890217419
0.0102997430414872
0.0103099249314896
0.0103117713891994
0.0103058783957903
0.0102928022932307
0.0102730612798303
0.0102471369037417
0.0102154753882949
0.0101784888235957
0.0101365563050085
0.0100900250973526
0.010039211608675
0.00998440211232231
0.00992585356284082
0.00986379450720974
0.00979842308921932
0.00972990522006445
0.00965838998841235
0.00958403254804881
0.00950698122161845
0.00942735363538004
0.00934522976176761
0.00926065593172039
0.00917364636485068
0.00908418039604667
0.00899220598278216
0.00889763101650847
0.00880032185549267
0.00870008407129602
0.00859666720194294
0.00848971998684131
0.00837880230506736
0.00826328763134278
0.0081423937544161
0.00801452243753093
0.00787635704630509
0.00772632192044747
0.00756078005102024
0.00737415194526311
0.0071586395242972
0.00694879225360661
0.00688368769391314
0.00705646805563658
0.00744832941572432
0.00803604856169928
0.00880768250498661
0.00976478536349782
0.0108998934107496
0.0121911560494273
0.0136093241126264
0.0151269871080978
0.0167122035830982
0.0183526731001689
0.0200639064308699
0.0218835540980975
0.0238667310207289
0.0260856805965708
0.0286104181186723
0.0314463567236958
0.0345087726185414
0.0376526229498374
0.0405786906375552
0.0430728258148355
0.0452107189044609
0.0478335471044879
0.0503335362706824
0.0523755330420721
0.0524186689118781
0.0449947989466487
0.0423962973637063
0.0403512199361015
0.0448380046829685
0.0465244327140166
0.027442348310137
0.00970582197075078
0.00467105162058259
0.00318029823295887
0.0023674917529702
0.00187741397690044
0.00161624128701721
0.00151301242290092
0.00152027682052332
0.00159934509405877
0.00171572630873735
0.0018444073524279
0.00197346181377098
0.00210161313960147
0.00223297702069283
0.00237638039984978
0.00254297433412183
0.00274439268880917
0.00299315208243866
0.00330323591586045
0.00368571505210303
0.00413913145946717
0.00463392648555701
0.00510781558233833
0.00554124290538324
0.00595085136803575
0.00633321868220228
0.00668931086457465
0.00701991452661216
0.00732508340421782
0.00760632205769206
0.00786538489389681
0.00810346696300853
0.00832093465477702
0.00851854141437761
0.00869708818129325
0.00885743581781336
0.00900048501343964
0.00912715816235689
0.00923838165581443
0.00933507188555871
0.00941812385780146
0.00948840318739085
0.00954674049300794
0.00959392813048065
0.0096307183944792
0.0096578229338414
0.00967591300619396
0.00968562001038984
0.00968753661755391
0.00968221796714178
0.00967018265012851
0.00965191406215706
0.00962786178103561
0.00959844280133689
0.00956404264244985
0.0095250164033878
0.00948168982956358
0.00943436016376728
0.00938329673972444
0.00932874175458726
0.00927091112329275
0.00920999110882044
0.00914614313990278
0.00907953110411931
0.00901031737796148
0.0089386404671974
0.00886461282291051
0.00878831672394628
0.00870980701389833
0.00862911262260978
0.00854623437615285
0.00846114836622437
0.00837379980434237
0.00828410283159381
0.00819192621357298
0.0080970989754429
0.00799937681996323
0.00789845497871322
0.00779389291725568
0.0076851423423034
0.00757106589346253
0.00744923253614503
0.00731824259817953
0.00717539743337013
0.00701657849196497
0.00683869815143423
0.00666272236858084
0.00659459540204591
0.0067301994727599
0.00706396602007864
0.00757667975410014
0.00825590906167131
0.00909911777478227
0.0100967525610554
0.011229617492008
0.0124722829526102
0.0138003912440497
0.0151876025737142
0.0166276123616753
0.0181345223063085
0.0197377941894726
0.0214817167570777
0.023424808143929
0.0256178453597341
0.0280512825940704
0.0306564114762563
0.033319908246016
0.0357994708344963
0.0379080459312772
0.0396827205708791
0.0418550144484245
0.0441566908929428
0.0462345053672277
0.0465257842603074
0.0405563765235308
0.0384478423265901
0.0368050388935349
0.0407027895723516
0.0461600990620898
0.0315699615673512
0.0119382817034717
0.00497538785977718
0.0031693250287471
0.00233409058941177
0.00184898742049628
0.00159197630262598
0.00148742859849695
0.0014877901320209
0.00155541977855372
0.00165782766341182
0.00177248200575936
0.00188966582624353
0.00200905795168089
0.00213513867601611
0.0022763205137468
0.00244267105087636
0.00264441035685061
0.00289244047727935
0.00319820941904386
0.0035691660806299
0.00400040371060128
0.00446207551572203
0.00489917909297161
0.00530031238326317
0.005681897278754
0.00603907779776769
0.00637229793716251
0.00668218738469278
0.00696894782542794
0.00723385656870021
0.00747817872984576
0.0077027736780849
0.00790801742707088
0.00809457992509366
0.00826318901437944
0.00841463630994377
0.00854975643536328
0.00866940921069756
0.008774461912052
0.00886577523119761
0.00894419177897733
0.00901052791482341
0.00906556798154909
0.00911006085567587
0.00914471799708422
0.0091702127266749
0.00918718035695161
0.00919621863769024
0.00919788877693662
0.00919271657034947
0.0091811933459841
0.00916377721526645
0.00914089439078462
0.00911294038935927
0.00908028110400032
0.00904325380741543
0.00900216814471711
0.00895730688017264
0.00890892640092653
0.00885725749320552
0.00880250615462789
0.00874485082453489
0.00868446059555231
0.00862151112864678
0.00855615689161416
0.00848853009021558
0.00841874026995185
0.00834687215903314
0.00827298771181656
0.00819712763270601
0.00811930991025595
0.00803953303494204
0.00795777192537953
0.00787397875135955
0.00778807275532653
0.00769994630248422
0.0076094405136045
0.00751635806878989
0.00742040673100228
0.00732122314285714
0.00721801858672517
0.00710903393531095
0.00699308366859006
0.00686813641370756
0.00673125954070816
0.00658240973025566
0.00643382106018867
0.00636714321168079
0.00647538202683123
0.00676321140216544
0.00721563111760377
0.00782045249254391
0.00857240946186478
0.00946065672222093
0.0104677860696902
0.0115713114010455
0.0127493470480721
0.0139798632718548
0.0152603385367617
0.016604095692619
0.0180352654136185
0.0195905386027019
0.0213185045233407
0.0232570053104806
0.0253884368282689
0.0276549475901667
0.0299642891920105
0.0321136344020684
0.0339312033714356
0.0354193919732443
0.0372068048771793
0.0392482448278348
0.041256386417744
0.041737098327689
0.0368577303649402
0.0351362144245349
0.0338460976340587
0.037000536565004
0.0448798880005736
0.0348953256278518
0.0148228954371958
0.00554352527639934
0.00323942018891866
0.00233897404941564
0.00184492934388414
0.00158481220276628
0.00147544462010837
0.00146753497451024
0.00152401763020963
0.00161409396968857
0.00171709132120932
0.00182473682058222
0.00193729273892106
0.00205934767315554
0.00219881894029218
0.0023648377916825
0.00256644340026641
0.0028130124024383
0.00311369783918485
0.0034730490713307
0.00388391469954671
0.00431762390878822
0.00472639328740528
0.00510361931341119
0.00546419986076443
0.00580249383786908
0.00611856478701258
0.00641294836043655
0.00668591873595841
0.00693851751572531
0.00717166564103117
0.00738601080820146
0.00758192568953719
0.00776001647496619
0.00792095654404297
0.00806548694199827
0.00819439507740721
0.00830849687471385
0.00840861878075515
0.00849558345518139
0.00857019800032624
0.00863324551201159
0.00868547908621795
0.00872761815958854
0.00876034641099067
0.0087843109187906
0.00880012221340145
0.00880835467651632
0.00880954748596085
0.00880420574540342
0.00879280143039961
0.00877577456222405
0.00875353450577679
0.00872646118476041
0.00869490615306489
0.00865919356909224
0.00861962112490735
0.00857646069570995
0.0085299587993549
0.00848033741938174
0.00842779475297335
0.00837251217269497
0.00831467160047049
0.00825444306080964
0.00819197502538145
0.00812739562997758
0.00806081296958383
0.00799231427078076
0.00792196759337546
0.00784982338771877
0.0077759137487619
0.00770025552483624
0.00762284793417767
0.00754367423685169
0.00746269496943221
0.00737985427215073
0.00729506301046897
0.00720821128789511
0.00711912747539798
0.00702759794240627
0.00693310498274417
0.00683440622325736
0.00673053968631138
0.00661996450542167
0.00650071244561071
0.00637466904546413
0.00624846964111628
0.00618577759816915
0.00627377583604001
0.00652470805475857
0.00692770281721521
0.00747129219221534
0.00814843957876607
0.00894753562788897
0.00985243905154591
0.0108429602392658
0.0118992635818634
0.0130027168670882
0.0141532423509431
0.0153636617045617
0.0166545464024387
0.0180571378750857
0.0196126272295087
0.0213498652073495
0.023247243838117
0.0252547219148719
0.0272940907741451
0.0291898343616849
0.030778008408491
0.0320324923585554
0.0334950533723636
0.0352653888267163
0.037141976907766
0.0377492582140552
0.0337128250649268
0.0323028363322123
0.0313192603820497
0.0337501179238353
0.04293760013205
0.0373072782786007
0.0181948612180999
0.00643674406076622
0.00340358667567138
0.00238319824016155
0.00186460070073379
0.00159393176567072
0.00147605851416804
0.00145831460615209
0.00150354542528486
0.00158223452374238
0.00167505323621507
0.00177463009127961
0.00188153192459715
0.00200027764056643
0.00213825134152755
0.00230375429559489
0.00250479507686638
0.00274933317686606
0.00304450953113407
0.00339262119095429
0.00378520279461185
0.00419557296904868
0.00458251069775016
0.00494199349871898
0.00528685650745853
0.0056110663372923
0.00591437625878261
0.00619724939927586
0.00645997878070846
0.0067033894785227
0.00692815514842731
0.00713478293795099
0.00732363514894172
0.00749526912129987
0.00765031776725414
0.00778948582557357
0.00791352798850411
0.00802323072812104
0.00811939385180532
0.0082028157342207
0.00827428113334851
0.00833455236561938
0.0083843630249073
0.00842441408785706
0.00845537166832809
0.00847786606499135
0.00849249177331031
0.00849980786949417
0.00850033890083751
0.00849457607304626
0.00848297823156454
0.00846597297241099
0.00844395794912644
0.0084173021346381
0.00838634692104072
0.00835140708176115
0.00831277163769621
0.00827070441240367
0.00822544450660204
0.00817720720468782
0.00812619051839637
0.00807258668325783
0.00801657736638692
0.00795832598087744
0.00789797672054082
0.00783565517517882
0.007771468981421
0.00770550788930331
0.00763784533339906
0.00756854005796456
0.00749763602972364
0.00742516549848406
0.00735114799862997
0.00727559275698882
0.00719849474232369
0.00711984126376405
0.00703960113639573
0.00695773694234627
0.00687417664031749
0.00678882992665694
0.00670139410879292
0.00661102873925782
0.00651698888093612
0.00641810372122313
0.00631318717636349
0.00620529837903574
0.00609753995104771
0.00604019463642091
0.00611323362198833
0.00633420562460136
0.00669608148286684
0.00718841937586852
0.00780310603851202
0.0085281334654535
0.00934830396902825
0.0102452431189199
0.0112008460809212
0.0121992107409906
0.0132418616698786
0.0143412436130114
0.0155155071965337
0.0167919169038354
0.0182060247656071
0.0197802991002044
0.0214916100790372
0.023295773544298
0.0251237371590037
0.0268185697913863
0.0282192806900268
0.0292777715022276
0.0304661796336485
0.0319775600732412
0.0336908739440068
0.0343699952204013
0.0309985409688681
0.0298419650902288
0.0291184707149115
0.0309303018220941
0.0405362413109638
0.0388045926086563
0.0217726336880136
0.00773640975750556
0.0036841213768412
0.00247055094380897
0.00190835528617291
0.0016190236378463
0.00148862658537877
0.00145924159887747
0.00149279180689645
0.00156055178868369
0.00164408661325786
0.00173651504191412
0.00183848620890097
0.00195431774793405
0.00209084219173506
0.0022556091849844
0.00245570713405732
0.00269780343205021
0.00298731910846166
0.00332485583148849
0.00370132426427533
0.00409241707660839
0.00446263384027523
0.00480907610955373
0.00514235387315874
0.0054562713400708
0.00575030269311356
0.0060248407699567
0.00628015930883814
0.0065168930029467
0.00673553327313443
0.00693648900803987
0.00712010872912349
0.00728691246367603
0.0074375036488706
0.00757256210406768
0.00769282147216415
0.00779905046296286
0.00789203377207055
0.00797255668673577
0.00804139236098208
0.00809929252775622
0.00814698087532586
0.00818514889200896
0.00821445347328699
0.00823551586553552
0.00824892167048821
0.00825522124160663
0.0082549305304866
0.00824853238482252
0.00823647760005167
0.00821918597266675
0.00819704763684081
0.0081704244023879
0.00813965090796054
0.00810503558536099
0.00806686145533989
0.00802538659798825
0.00798084472185978