/*--------------------------------*- C++ -*----------------------------------*\
  =========                 |
  \\      /  F ield         | OpenFOAM: The Open Source CFD Toolbox
   \\    /   O peration     | Website:  https://openfoam.org
    \\  /    A nd           | Version:  7
     \\/     M anipulation  |
\*---------------------------------------------------------------------------*/
FoamFile
{
    version     2.0;
    format      ascii;
    class       volScalarField;
    location    "3000";
    object      p;
}
// * * * * * * * * * * * * * * * * * * * * * * * * * * * * * * * * * * * * * //

dimensions      [0 2 -2 0 0 0 0];

internalField   nonuniform List<scalar> 
15600
(
0.909309245735875
0.914531701590443
0.904810213090715
0.938751494262498
0.970659179424218
0.98951599078751
0.998015366072919
1.00465468771331
1.00817525231898
1.01122362069123
1.01326389395302
1.01488923019733
1.01616023702049
1.01717601308715
1.01801811853133
1.01880486013864
1.01971655869905
1.02077411844684
1.02201483666967
1.02344977954684
1.02503105739684
1.02656923451514
1.02801263278838
1.02937693837069
1.03056494260695
1.03153835920007
1.03234629769713
1.03161187787704
1.03151771703469
1.0330217922681
1.0353078826181
1.03829711508492
1.04178716548039
1.04568636601795
1.04989926109692
1.05436065017742
1.05901025321381
1.06379921325127
1.06868445785474
1.07362871807881
1.0785994786868
1.08356880570898
1.08851282771014
1.09341144898376
1.09824799366512
1.10300887383928
1.10768325779374
1.11226273845769
1.11674102729655
1.12111365837459
1.12537772263547
1.12953162913436
1.13357488777985
1.13750792515018
1.14133192350014
1.14504867706755
1.14866047775967
1.15217001367873
1.15558028508027
1.15889453257903
1.1621161784175
1.16524877766255
1.1682959792529
1.17126149354632
1.17414906713189
1.17696246301816
1.17970544671098
1.18238177316661
1.18499517873431
1.18754937868558
1.19004807865388
1.19249495641256
1.19489372758437
1.19724816225841
1.19956210733053
1.20183943554493
1.20408411090647
1.20630011951911
1.2084916304473
1.21066274730499
1.21281801405199
1.21496180348187
1.21709942166363
1.219235616659
1.22137713917144
1.22352921705422
1.22570116896777
1.22789953086633
1.2301381448977
1.23242636461273
1.23478250967635
1.23722784602732
1.23977475826826
1.24273696557482
1.24556823284586
1.24866172396887
1.25176314864919
1.25498962186128
1.25819086155558
1.2613362590757
1.2640907080136
1.26629253799109
1.26757290922937
1.26772390943503
1.26633171117102
1.26372744550031
1.25977342232148
1.25416904258415
1.24648458273359
1.23589621088761
1.2204668495093
1.19589916789242
1.15938908825073
1.10914433080082
1.0369693250438
0.943205419146792
0.839519435862944
0.822016413528511
0.842308015296918
0.893094013777856
0.909332802102398
0.914650903614107
0.905001720224369
0.938399260085487
0.970085233956874
0.989099924763235
0.997745918834528
1.00446368326897
1.00805375243879
1.01113283020359
1.01320685429044
1.01485229269755
1.01613984288293
1.01716811517803
1.01801794511402
1.01880454778356
1.0197095409209
1.02075787942972
1.02198746307391
1.02341192483375
1.02498875046277
1.02652962889032
1.02797724860083
1.02934639132457
1.03053959321959
1.03151887313406
1.03233361701813
1.03160797226947
1.03153979107585
1.03305247063315
1.0353403553758
1.03833113767642
1.04182151693656
1.04572037817159
1.04993229388471
1.05439225796292
1.05904009481962
1.06382703005411
1.06871004628753
1.07365194185087
1.07862025684546
1.08358710413823
1.08852865104092
1.09342483377612
1.09825900196553
1.10301758753655
1.10768977364033
1.11226716379213
1.1167434764224
1.12111424957519
1.12537657570745
1.12952886344688
1.13357062073661
1.13750227098334
1.14132499240797
1.14504057457976
1.14865130427329
1.15215986419131
1.15556924904886
1.15888269388417
1.16210361541091
1.16523556327301
1.16828218113828
1.17124717429259
1.17413428448495
1.17694727013255
1.17968989241584
1.18236590222924
1.18497903218979
1.18753299415724
1.19003149067129
1.19247819636283
1.19487682288982
1.1972311351951
1.19954498443759
1.20182224693992
1.20406687458762
1.20628284473374
1.2084743221876
1.21064540922966
1.21280065628633
1.21494443877052
1.21708206731016
1.21921829325228
1.22135987763028
1.22351205486212
1.22568415235732
1.22788273481492
1.23012168154434
1.2324104570096
1.23476746606396
1.23721411898186
1.23976456244199
1.24274074559596
1.24558929112166
1.24870186361004
1.251820663493
1.25506211735292
1.25827177777787
1.26141249504877
1.26414512971111
1.26630770719136
1.26753220447277
1.26761274143144
1.26615224664717
1.26348585075152
1.25945867470416
1.25376347600664
1.2459573749571
1.23518186902688
1.21943789227622
1.19445657959733
1.15754073842623
1.10689864478778
1.03460982604129
0.941597604600093
0.840045581166532
0.82312544571181
0.842794278177893
0.893178225241597
0.9094131928058
0.914968288796488
0.905618943862825
0.938399138570469
0.969606954144507
0.988739802801222
0.997503291767315
1.00428937765205
1.00794053433121
1.01104702436538
1.01315189447193
1.01481662979116
1.01612012663781
1.01716066511694
1.01801850933211
1.01880569903856
1.01970360062569
1.02074059430112
1.02195483621872
1.02336168871269
1.02492343835117
1.0264558360374
1.02789761358303
1.02926237699619
1.03045397644536
1.03143307299866
1.03224869659523
1.03156306874028
1.03155645091265
1.03307974923432
1.03536802389195
1.03835838144559
1.04184634681298
1.04574218434109
1.0499504908536
1.05440662233087
1.05905054957132
1.06383357400231
1.06871268556
1.07365078282868
1.07861545679173
1.08357885645445
1.08851717329111
1.09341035893161
1.09824177074311
1.10299784247799
1.10766775448234
1.11224310396747
1.11671760052918
1.12108677166713
1.12534769811871
1.12949877621162
1.13353950133606
1.13747028429683
1.14129229102252
1.14500729917421
1.14861758404931
1.15212581746423
1.15553498388561
1.15884830876144
1.16206919989918
1.16520119870589
1.16824794128379
1.17121312603575
1.17410048851975
1.17691378164291
1.17965676177585
1.18233317562665
1.18494675237913
1.18750120128261
1.19000022303093
1.19244748978331
1.19484671385792
1.1972016633204
1.1995161706415
1.20179409770076
1.20403941295854
1.20625610613298
1.20844834937069
1.21062025153112
1.21277637236507
1.21492109574694
1.21705975412867
1.21919711508765
1.22133997964087
1.22349361473136
1.22566741468894
1.22786799965446
1.23010936210043
1.23240115484422
1.23476192919991
1.23721396489391
1.23976628790495
1.24274888322464
1.245605891534
1.24873044923912
1.25185832046037
1.25510643357206
1.25831459025328
1.26144041802105
1.26414228701589
1.26625951624178
1.26742510010959
1.26743747275059
1.26591471137329
1.26319048013121
1.25909193564439
1.25330721892127
1.24538004457752
1.23442022016492
1.218389792487
1.193078568078
1.1558969103872
1.10511502914373
1.03319954394967
0.94173755577029
0.842896019925959
0.826000094948401
0.844070730386127
0.893416344862688
0.909585293075774
0.915520222371133
0.906773927154655
0.938927957591904
0.969251385735637
0.98842059462944
0.997275669730211
1.00412328719475
1.00783118657694
1.01096191774515
1.01309629926357
1.01478051378613
1.01610050561561
1.01715400941004
1.01802073740689
1.01880905365282
1.01969782807521
1.02071878097747
1.02191033226174
1.02328930168352
1.02482270621347
1.02633421352416
1.02775995487661
1.02911159837368
1.0302959176811
1.03127034175389
1.0320844659341
1.0314865586394
1.03157804019765
1.03311144638795
1.03539699826184
1.03838241639662
1.04186285680741
1.04575079475641
1.04995091542188
1.0543989293158
1.05903501324381
1.06381069440402
1.06868287558087
1.07361454502313
1.07857332471376
1.08353137991321
1.08846490250313
1.09335383419642
1.09818151388024
1.10293435099611
1.10760149768477
1.11217452065909
1.11664709801017
1.1210147257449
1.12527445365673
1.12942464833751
1.13346477689824
1.13739522334784
1.14121712869907
1.14493224746579
1.14854283345168
1.15205153878642
1.15546133000427
1.15877541628582
1.1619971908083
1.16513018188068
1.16817801399138
1.17114437538867
1.17403299292654
1.17684761222155
1.17959198383535
1.18226984993665
1.18488493660803
1.18744095191247
1.18994159645738
1.19239054235479
1.19479149202769
1.19714819358629
1.19946449335463
1.20174427922936
1.20399152431364
1.20621022445526
1.20840456949795
1.21057868698705
1.21273716562707
1.21488441809411
1.21702582924645
1.21916621396929
1.22131246465191
1.22346994389266
1.22564821274397
1.22785400948905
1.23010156666767
1.23240089004985
1.23477074333118
1.23723526633346
1.23978766452709
1.24276324943391
1.24561424254683
1.24873807351489
1.25186075070209
1.25510082968683
1.25829051252428
1.26138362384942
1.264038200175
1.26609611491968
1.26719161099218
1.26712973417774
1.26554392221049
1.26276051559551
1.25858638472815
1.2527055146078
1.24464655875504
1.23348760389943
1.2171669473357
1.19155935361715
1.15418072947056
1.10339420161853
1.03209928233827
0.942636383178011
0.84700574839115
0.830212423219759
0.84625885332672
0.893908644905777
0.909849391986
0.916242554791724
0.908264202579563
0.939856569240343
0.96909682372255
0.988150056385834
0.99705398721666
1.00395262264213
1.00771903509737
1.01087323187287
1.01303747166369
1.01474267934389
1.01608095380913
1.01714928727565
1.0180266353815
1.0188168801638
1.0196943103432
1.02069464093543
1.02185701867856
1.02320010547961
1.02469620891203
1.02617981660182
1.02758486378464
1.02892033936423
1.03009686396133
1.03106836423846
1.03188413463664
1.03140051799704
1.03160224425316
1.03314512000119
1.03542676769639
1.03840399328831
1.04187336612209
1.0457499195044
1.04993853833826
1.05437544649393
1.05900099875187
1.06376685173833
1.06862991391928
1.0735532376399
1.07850445853791
1.08345574176677
1.0883832619946
1.09326693326841
1.09809005854401
1.10283900616104
1.10750288421257
1.11207321412084
1.11654362881795
1.12090958030318
1.12516807595757
1.12931744222894
1.1333571085044
1.13728742336272
1.14110949516328
1.14482504825891
1.14843630858746
1.15194590292901
1.15535677486289
1.1586721128495
1.16189529155801
1.16502982284696
1.16807931675096
1.17104744903139
1.17393793602498
1.17675451475282
1.17950092930502
1.18218091711362
1.18479820136492
1.18735649019732
1.18985948322348
1.19231084141444
1.19471426013031
1.19707350271153
1.19939242749435
1.20167492679031
1.20392498620177
1.20614661604845
1.20834403150688
1.21052138878819
1.21268332106146
1.21483428610564
1.21697974557902
1.21912458680724
1.22127583571641
1.22343899268021
1.22562388022245
1.22783738499254
1.23009406190404
1.23240433675713
1.23478710883802
1.23726853033888
1.23981997712661
1.24278012136621
1.24561342374155
1.24872594068274
1.25183116657037
1.2550500961895
1.25820577013164
1.26124905873849
1.26383873016079
1.26582051322762
1.26683024225626
1.26668155771123
1.26502380411616
1.26217293380721
1.25791259864009
1.25192148627923
1.24371059917841
1.23232374402394
1.21568034051738
1.18975623370916
1.1521752526227
1.10140806912805
1.03080053602986
0.943486521815013
0.851276584241338
0.834812229591931
0.848883851945311
0.894589133556153
0.910202806578018
0.917081383341157
0.909891484593701
0.940962528083316
0.969193005363643
0.987963600559607
0.996867446324845
1.00377515564944
1.00760183679766
1.01078077417935
1.01297595881361
1.01470435139346
1.01606328877513
1.01714882285845
1.01803875533037
1.01883178017446
1.01969621984533
1.02067263361105
1.02180145828356
1.0231037588627
1.0245574654572
1.02600925442845
1.02739107664579
1.02870904711052
1.02987771892266
1.03084785708097
1.03166723305291
1.03130603595632
1.03161849324523
1.03317379156019
1.03545444993053
1.03842317164215
1.04188054755079
1.04574433456669
1.04991998167365
1.05434432807494
1.05895792988657
1.06371259604659
1.06856530469002
1.07347916572153
1.07842182799024
1.08336545252581
1.08828619128843
1.09316392411797
1.09798191128396
1.10272647324849
1.10738666757717
1.11195396424226
1.1164219452617
1.12078601325914
1.12504312814565
1.12919157153361
1.13323073069216
1.1371609145811
1.14098319506651
1.14469926270165
1.14831131210484
1.15182194156355
1.15523406882508
1.15855085897718
1.16177566579375
1.16491198253623
1.16796340288477
1.17093358847181
1.17382624375656
1.17664509607128
1.17939388238521
1.18207633499525
1.18469617396163
1.18725710566453
1.18976282099437
1.19221697088737
1.1946232599875
1.19698546391185
1.19930744470642
1.20159310327552
1.20384644167989
1.20607148894528
1.20827248889098
1.21045363101562
1.21261959922953
1.21477490315544
1.21692509146685
1.21907513334632
1.22123220588367
1.22340195299685
1.22559449963031
1.22781686865574
1.23008394442164
1.23240643266304
1.2348031220246
1.23730162893951
1.23985188494832
1.24279539300245
1.24560477466502
1.24869946074188
1.25177922899372
1.25496798960788
1.25807899583408
1.26106061959079
1.26357251398639
1.26546536647512
1.26637706160838
1.26613101923739
1.26439198598268
1.26146422608428
1.25710658336769
1.25099122218055
1.2426093316168
1.23096934836059
1.21397527535729
1.18771397284492
1.14992166346193
1.09919249456806
1.02932743019008
0.944242708617759
0.855522985789628
0.839510758969404
0.851711485230604
0.895417661335012
0.910646975678147
0.918015849044164
0.91159246594828
0.942162103324741
0.969504165390855
0.987864046932136
0.996763325958005
1.00360209459181
1.00748102069899
1.01068630461714
1.01291373325732
1.01466757476019
1.01604954760015
1.01715434018491
1.01805820046388
1.01885435738355
1.0197045656007
1.02065485059538
1.02174728836687
1.02300575669856
1.02441370881343
1.02583059604302
1.02718675527833
1.0284855615713
1.02964528797094
1.03061440394744
1.03143798257685
1.03120216070474
1.03162418639291
1.03319534181419
1.03547853451978
1.03843930985678
1.04188470176848
1.0457351548059
1.04989709121513
1.0543080163302
1.05890876968766
1.06365136789092
1.06849289596483
1.07339652453247
1.07832992229782
1.08326524707891
1.08817862760187
1.0930499074303
1.09786230162232
1.10260207988395
1.10725824637836
1.11182221675079
1.11628751932571
1.12064950464889
1.1249050824714
1.12905248697723
1.13309106076375
1.13702107058245
1.14084354937207
1.14456015145524
1.14817303771075
1.15168477568373
1.15509825517555
1.15841661588965
1.16164318885069
1.16478144701034
1.1678349661335
1.17080739233673
1.17370241701706
1.17652375680859
1.17927514096023
1.18196029636879
1.18458293875473
1.18714676466302
1.18965545154962
1.1921126536297
1.19452208762713
1.19688753421523
1.19921286238925
1.20150198453221
1.20375891984918
1.2059877170106
1.20819265005038
1.21037794393534
1.21254833599236
1.21470839049518
1.216863747274
1.21901945948423
1.22118286207426
1.22335973322569
1.22556051059868
1.22779232259056
1.23007037550634
1.23240542478062
1.23481593247907
1.23733024906196
1.23987915439702
1.24280727830548
1.24558896887903
1.24866114134083
1.25170932298583
1.25486077454554
1.25791880797033
1.26082968388302
1.26325383186813
1.26504778370178
1.26585195734264
1.26550030189093
1.26367189813418
1.26065847287111
1.25619347210238
1.24994157013408
1.24137246905262
1.22945951104677
1.21209554298347
1.1854858779217
1.14748280860928
1.09682069157171
1.02776379000373
0.94497757517456
0.859764414932093
0.844262941154845
0.854684618535424
0.896382475236693
0.91117723669627
0.919031282052142
0.913341803044948
0.943427716198541
0.969939841071183
0.987835029329231
0.996758754019185
1.0034557550979
1.00736135154302
1.01059264532434
1.01285312599181
1.014633966654
1.01604075356054
1.01716617744087
1.01808467371917
1.01888405432258
1.01971923628947
1.0206419569957
1.02169602924452
1.02290844026331
1.02426789868189
1.02564700603165
1.02697497312389
1.02825270554928
1.02940196715536
1.03037029963441
1.03119866564298
1.0310897785786
1.0316195792682
1.03320959549659
1.03549860221168
1.03845223502822
1.04188603188749
1.04572292866335
1.04987073462594
1.05426765452409
1.05885491991685
1.06358479786913
1.068414513242
1.07330730475709
1.07823087026497
1.08315736731327
1.08806290319324
1.09292728530127
1.09773368313352
1.10246831482843
1.10712013024078
1.1116804896378
1.11614286655313
1.12050255827566
1.12475642306394
1.12890264629159
1.13294052438778
1.13687028022432
1.14069290618107
1.14441001860157
1.14802374277821
1.15153661375494
1.15495149168849
1.15827148922842
1.16149991307516
1.16464021438251
1.16769594961125
1.1706707481057
1.17356828710497
1.17639227156991
1.17914642261534
1.18183446144294
1.18446009193532
1.18702699370559
1.18953884070172
1.191999297108
1.1944120874494
1.19678099771761
1.1991099050265
1.20140273299726
1.20366351801248
1.20589632878358
1.20810547040511
1.21029520448716
1.21247032318166
1.21463544665267
1.21679630774471
1.21895804254779
1.22112814658301
1.22331251682685
1.22552190288191
1.22776349549564
1.23005282572287
1.23240043293129
1.23482434148173
1.23735285439227
1.23990011337406
1.24281463169072
1.24556573057452
1.24861141757196
1.25162251628916
1.25473013224874
1.25772765489663
1.26055964727112
1.26288714275486
1.2645732820615
1.26526148154293
1.26479677208135
1.26287124503726
1.25976336426007
1.25518103652067
1.24878061580894
1.24000893911726
1.22780519922408
1.21005595928632
1.18309160024923
1.1448835681921
1.09432308237599
1.02614464188061
0.945717892350598
0.864002271943482
0.849035641841024
0.857762630463043
0.897463739885839
0.911788847961126
0.920115370853811
0.915123002924847
0.944715917786513
0.970434841984673
0.987867657678619
0.996823016279885
1.00336154929736
1.00724899860003
1.01050203818371
1.01279571329109
1.01460421817494
1.01603695590989
1.01718388465324
1.01811742935184
1.01892012882416
1.01973986982341
1.02063411251572
1.02164836829648
1.02281299507925
1.02412164736998
1.02546034387528
1.02675768344484
1.0280124705256
1.0291497492591
1.03011782167789
1.03095185888883
1.0309702566373
1.03160516297642
1.03321672699829
1.03551465902403
1.03846214126796
1.04188500756328
1.04570838102141
1.04984187953139
1.05422443059804
1.05879777557814
1.06351446203923
1.06833188804176
1.07321336996971
1.07812664561785
1.08304387645891
1.08794115176807
1.09279824447292
1.09759827983322
1.10232742525703
1.10697457700327
1.11153104044421
1.11599023466732
1.12034740384941
1.12459935462048
1.12874422324317
1.13278125943753
1.13671064135465
1.14053331992397
1.14425087239282
1.14786538715312
1.15137936544837
1.15479563648406
1.15811728451019
1.16134759059204
1.16448998281152
1.16754799710102
1.17052524490226
1.17342538827868
1.17625211963879
1.17900915180319
1.18170019541387
1.18432893366019
1.18689903347671
1.18941417577581
1.19187803343455
1.19429433588183
1.19666687510669
1.1989995358774
1.20129625245561
1.20356107824096
1.20579810213502
1.2080116604893
1.21020605191217
1.21238612366921
1.21455655165502
1.21672316169011
1.21889116910367
1.22106822953254
1.22326033811418
1.22547854929107
1.2277300598958
1.23003073961257
1.2323906159373
1.2348272686634
1.23736810400596
1.2399132641491
1.242816284144
1.2455344745647
1.24855023884474
1.25151919602014
1.25457684571804
1.25750679322073
1.26025234014699
1.26247491513894
1.2640449541439
1.26460930262108
1.26402446297372
1.26199402284653
1.25878257256149
1.254072609035
1.24751141113631
1.2385218259093
1.22601030541659
1.20786246403289
1.18054002546786
1.14213661150629
1.09171698699567
1.02449079718249
0.946476376570003
0.868231237214683
0.853805199312155
0.860917438083471
0.898645736699324
0.912479329722159
0.921258886306226
0.916929331866146
0.945981906885002
0.970966514004999
0.987974837579207
0.996906181053213
1.00334137685918
1.00715197899921
1.01041594594464
1.01274216483807
1.01457830956527
1.01603770153791
1.01720678053451
1.01815573385682
1.01896196876388
1.01976617710731
1.02063143000928
1.02160481994101
1.02272032296931
1.02397621820891
1.02527211256942
1.02653650877153
1.02776657768948
1.02889044388999
1.02985901143531
1.03069979235369
1.03084482260706
1.03158148010816
1.03321701075964
1.03552681767762
1.0384692889985
1.04188210934313
1.04569220280264
1.04981142534521
1.05417943580164
1.05873860657535
1.06344178770387
1.0682465841661
1.07311640063285
1.07801902671274
1.08292663290771
1.0878152951737
1.09266475495197
1.09745809598625
1.10218143718309
1.10682362330419
1.1113759066339
1.11583165341337
1.12018605601283
1.12443587034931
1.12857918423215
1.13261520097818
1.13654405392187
1.14036665231434
1.14408453375981
1.14769974891718
1.1512147643489
1.15463237736331
1.1579556427637
1.1611878149138
1.16433229775069
1.16739260560894
1.17037233101149
1.17327511995195
1.17610465180616
1.17886462852752
1.18155874000155
1.18419064805885
1.18676402079531
1.18928254680523
1.19174990238133
1.19416982211188
1.19654610357137
1.19888263858007
1.20118337152403
1.20345237235398
1.20569374989904
1.2079118713504
1.21011107190505
1.21229625314326
1.21447214521364
1.21664466507248
1.21881910112301
1.22100326568695
1.22320322671718
1.22543033199782
1.22769171498057
1.23000360937799
1.23237520802662
1.23482374068472
1.23737479856924
1.23991723424283
1.24281107103678
1.24549449418891
1.24847735799287
1.25139949313102
1.25440138047128
1.25725708846834
1.25990910889787
1.26201904701776
1.26346525277389
1.2638983837048
1.26318663801734
1.26104342956159
1.25771896903505
1.25287068991424
1.24613611255423
1.23691324392699
1.22407763584972
1.20551975370733
1.17783877508148
1.13925362618657
1.08901942048321
1.02282331446782
0.947267375824196
0.872450985710146
0.858559421662189
0.864134486662738
0.899920076476811
0.913247995865339
0.922455150902684
0.9187592656898
0.947193334824092
0.971525511220342
0.988166579802813
0.99698291350035
1.00340509281315
1.00708163972915
1.01033606958164
1.0126928581223
1.01455604020821
1.01604247495014
1.01723425530049
1.01819902484145
1.01900915930692
1.01979800799686
1.020634074105
1.02156585960321
1.02263119945826
1.02383267700929
1.02508358017127
1.02631282711322
1.02751651181863
1.02862564220803
1.02959561252792
1.03044429580117
1.03071457553804
1.03154916847511
1.0332108179078
1.03553524915227
1.03847394953434
1.04187777610858
1.04567500540495
1.04978016199583
1.0541336262954
1.05867852428798
1.06336802362541
1.06815997051665
1.07301786875839
1.07790957239902
1.08280726673726
1.08768702014155
1.09252854661877
1.09731489230856
1.10203213104828
1.10666905941136
1.11121687956313
1.11566890760649
1.12002028643629
1.12426772310399
1.12840925847739
1.13244405053382
1.13637218835518
1.14019453988586
1.14391260305332
1.14752839038303
1.15104433325511
1.15446319646399
1.15778800459196
1.16102198445954
1.16416851497348
1.16723108793878
1.17021327607539
1.17311870880623
1.17595105174075
1.17871398449473
1.18141117176892
1.18404627001413
1.18662295157316
1.18914490567226
1.1916158115102
1.19403940859523
1.19641949938665
1.19875998213946
1.20106481070159
1.2033380707914
1.20558389050111
1.20780666688468
1.21001077062977
1.21220115585296
1.2143826043044
1.21656112061129
1.21874205789967
1.22093337912377
1.22314119563771
1.2253771345513
1.22764818372892
1.22997097916373
1.23235353439995
1.2348129232836
1.23737194517174
1.23991084105408
1.2427978511879
1.24544496759423
1.24839232174593
1.25126326554657
1.25420386481764
1.25697899407483
1.25953079771115
1.2615208544347
1.26283598345
1.2631309779016
1.26228579191584
1.2600218801827
1.25657465847744
1.25157701945582
1.24465611407372
1.23518455587584
1.2220092420007
1.20303176058913
1.17499479652203
1.13624585676216
1.0862472559296
1.02116293033439
0.948105279290181
0.876663347858541
0.863291226762157
0.867405551530095
0.901282365377149
0.914095257259453
0.923699272887418
0.920612493498146
0.948332147504893
0.97209995032904
0.988433294870257
0.99706180113285
1.00354316840214
1.00705267458521
1.01026528007396
1.01264833397959
1.01453733377264
1.01605088171082
1.01726583821157
1.0182468970157
1.01906143416434
1.01983531097272
1.02064224652557
1.02153194074889
1.02254632324719
1.0236919700089
1.02489587917594
1.02608788588968
1.02726363719675
1.0283568236371
1.02932919439437
1.03018695616424
1.03058053557343
1.03150892592576
1.03319859327066
1.03554017709935
1.03847641626153
1.04187243174574
1.04565736123899
1.04974882073156
1.05408788333969
1.0586185505835
1.06329431663755
1.06807330392989
1.07291912586352
1.07779971409409
1.08268727499792
1.0875578759727
1.09239120858895
1.09717028636698
1.10188114260084
1.10651253009234
1.11105560492193
1.11550363678223
1.11985172237089
1.12409652257908
1.12823603363577
1.13226936994179
1.13619657750606
1.14001848389568
1.1437365478066
1.14735274363275
1.15086946742762
1.15428945116776
1.15761568869899
1.16085137867105
1.16399987424722
1.16706464391319
1.17004924005522
1.17295727509187
1.17579239170012
1.17855824028883
1.18125847170376
1.18389674497112
1.18647673129198
1.18900211713154
1.19147658461506
1.19390387741364
1.19628780211113
1.19863226263649
1.20094122143151
1.20321877890373
1.20546908138094
1.20769655426878
1.20990560200948
1.21210122855847
1.2142882635364
1.21647279425523
1.2186602282469
1.22085867066825
1.22307424329632
1.22531883752629
1.22759920116009
1.22993242423922
1.2323249794553
1.23479407289742
1.23735868613965
1.23989302985239
1.24277548725887
1.24538497144622
1.2482945036226
1.25111015711841
1.25398417600351
1.25667266872915
1.25911789814924
1.26098124677592
1.26215849553224
1.26230882837817
1.26132385263884
1.25893120125383
1.25535116641493
1.25019276732394
1.24307224840512
1.23333659068452
1.21980665805697
1.20040190490094
1.17201457738245
1.13312419527455
1.08341704337986
1.01952943604678
0.949003165541013
0.880870081215387
0.867995470133121
0.870724975929417
0.902730050920283
0.915022170012506
0.924987672034882
0.922488622011438
0.949394498298865
0.972675545361985
0.988758266177254
0.997166662943084
1.00372505568032
1.00708103960004
1.01020837480632
1.01260952761547
1.01452234173573
1.01606268827084
1.01730117888407
1.01829904841493
1.01911861603139
1.01987809211243
1.02065617223647
1.02150351033531
1.02246635995821
1.02355499181503
1.02471008916114
1.0258628899758
1.02700928167695
1.02808542938256
1.02906122835781
1.02992920730431
1.03044366575662
1.0314614926451
1.0331808406002
1.03554187452449
1.03847701223995
1.04186650283444
1.04563983009501
1.04971810724472
1.05404305241625
1.05855966239394
1.0632217611902
1.06798778281765
1.07282146004698
1.07769081569356
1.08256808391961
1.08742933856105
1.09225425462881
1.0970258190131
1.10173003002188
1.10635560214868
1.11089365043036
1.11533740284366
1.119681914062
1.12392380233179
1.12806102229698
1.13209264721011
1.13601868176451
1.13983991461537
1.14355776612892
1.14717417295054
1.15069149600778
1.15411243446095
1.15743995115424
1.160677216133
1.16382755626274
1.16689441626335
1.16988132801711
1.17279188003831
1.17562968283716
1.17839836508216
1.1811015759832
1.18374297320152
1.1863262213178
1.18885500389074
1.19133300527319
1.19376397237232
1.1961517150197
1.19850014188356
1.20081322293506
1.2030950719029
1.20534985197002
1.20758201485481
1.20979599640221
1.21199684681413
1.21418943882296
1.21637993596177
1.21857378805129
1.22077923177536
1.22300236320702
1.22525532309596
1.22754451274994
1.22988754181216
1.23228896832414
1.23476650376242
1.23733424643189
1.23986282837116
1.24274283659492
1.24531350235719
1.24818314178522
1.25093965778309
1.25374202513774
1.25633809204359
1.25867069866948
1.26040090793133
1.26143388934638
1.26143339816682
1.26030243004784
1.2577728917502
1.25404971071944
1.24871882430749
1.24138511093698
1.23137000845685
1.21747131881959
1.19763358280985
1.16890467370601
1.12989968979427
1.08054543171317
1.01794195931629
0.949972862634413
0.885072533396101
0.872668121593779
0.874088512968564
0.90426156384093
0.916030130835655
0.926317791278214
0.924386920646288
0.950389014915353
0.973233845744128
0.989122906727647
0.997321760359885
1.00391061270541
1.00718057055886
1.01017280513361
1.01257800402637
1.01451150648084
1.01607784506674
1.01734003360668
1.01835524349529
1.01918057682176
1.01992638891212
1.02067609145672
1.02148101877811
1.02239196808608
1.02342262365823
1.02452728083198
1.02563904577533
1.026754775511
1.02781289465709
1.02879312420026
1.02967237799416
1.03030489282657
1.03140765450848
1.03315812082929
1.03554066553497
1.03847609627592
1.04186042952965
1.04562297308499
1.04968871823465
1.05399996225839
1.05850281307182
1.06315142282414
1.06790457231588
1.07272612251707
1.07758420119888
1.08245107739674
1.08730283952213
1.09211915274598
1.09688298427969
1.10158030399466
1.10619979454644
1.11073253593603
1.11517172004629
1.11951236455826
1.12375104936174
1.12788569128972
1.13191532550804
1.13583991770736
1.13966021961251
1.14337761459839
1.14699400230758
1.15051170907893
1.15393340156159
1.15726201156029
1.160500680242
1.16365270795277
1.16672151584305
1.16971061056801
1.17262354503737
1.17546390185939
1.17823530438857
1.18094139763927
1.18358583030107
1.18617226000495
1.18870436689089
1.19118583654011
1.19362041804318
1.19601192345403
1.19836426506925
1.20068141912306
1.20296751100278
1.20522671901054
1.20746351860876
1.20968237408853
1.21188837741515
1.21408643868964
1.21628278974052
1.21848290891412
1.22069515157763
1.2229255492606
1.22518647774431
1.22748387474468
1.22983594859479
1.23224496040619
1.2347295748613
1.23729791204495
1.23981932998027
1.24269875222627
1.24522949420037
1.2480573621398
1.25075113611514
1.25347700198494
1.25597512594096
1.25818936511513
1.25978039522433
1.26066313003195
1.26050599753893
1.25922295653912
1.25654827592253
1.25267136670305
1.24715598748379
1.2395952748858
1.22928555081021
1.21500485269338
1.19473050787008
1.16567207152662
1.12658393904474
1.07764953163395
1.01641914138491
0.951025082461016
0.889271637538618
0.877305921164946
0.877492787514697
0.905875862036566
0.917120659657513
0.927687890180299
0.926306228927369
0.951332738542244
0.973752252963273
0.989506831322919
0.997537162301731
1.00407588313756
1.00735757021347
1.01016910484414
1.01255630590143
1.01450564488128
1.01609652806004
1.0173822747923
1.01841529774958
1.01924721394465
1.01998025215415
1.02070225170034
1.02146492243592
1.02232381079148
1.02329575225072
1.02434853815043
1.0254175834935
1.02650147103613
1.02754066662979
1.02852625564251
1.02941772862621
1.03016512873678
1.03134825080529
1.03313105503039
1.03553693093587
1.03847407025811
1.04185467662691
1.045607364214
1.04966135371702
1.05395943814345
1.05844894660548
1.06308435318686
1.06782481985186
1.0726343435681
1.07748117096
1.08233761338057
1.08717978263553
1.09198734160077
1.09674324569537