/*--------------------------------*- C++ -*----------------------------------*\
  =========                 |
  \\      /  F ield         | OpenFOAM: The Open Source CFD Toolbox
   \\    /   O peration     | Website:  https://openfoam.org
    \\  /    A nd           | Version:  7
     \\/     M anipulation  |
\*---------------------------------------------------------------------------*/
FoamFile
{
    version     2.0;
    format      ascii;
    class       volVectorField;
    location    "0";
    object      wallShearStress;
}
// * * * * * * * * * * * * * * * * * * * * * * * * * * * * * * * * * * * * * //

dimensions      [0 2 -2 0 0 0 0];

internalField   uniform (0 0 0);

boundaryField
{
    bottomWall
    {
        type            calculated;
        value           nonuniform List<vector> 
120
(
(-0.0347517967595153 0 0)
(-0.0347415976437859 -0.000285277220999189 -1.81087676659652e-22)
(-0.0350204458418361 -0.00144363301534347 -0)
(-0.0363359683290727 -0.00309794472349157 -5.45283853193017e-21)
(-0.0391425485843876 -0.00477115575821877 -3.27862702325158e-24)
(-0.0415897581968447 -0.00572108118960037 4.58605221551988e-20)
(-0.0426539285070315 -0.00608369857215541 -2.56379690509961e-20)
(-0.0424690602350427 -0.00611687792568912 7.99859307301136e-20)
(-0.0413654416329201 -0.00596944625434619 -2.23610391796146e-17)
(-0.0395825736715043 -0.00571301319509607 -2.14568892393376e-17)
(-0.0373740143271817 -0.00539229729510728 1.74734712067302e-23)
(-0.0352965967021105 -0.00508724643749864 -3.26282752136055e-23)
(-0.0335045688768561 -0.00482219726210979 3.06630838488409e-23)
(-0.0319532105915699 -0.00459214251048361 -1.97676851845304e-20)
(-0.0306061841608745 -0.00439289412541908 -5.65954045402491e-20)
(-0.0294338118814875 -0.00422084468285654 -5.28900570903991e-23)
(-0.0283504065399686 -0.00406161920947682 -5.18583030908678e-20)
(-0.0271853251436154 -0.00388349806749252 6.56691686993783e-20)
(-0.0259309306973955 -0.00368075057425713 -1.52671132084617e-20)
(-0.0246073121973232 -0.00344908204821908 -1.42757537503932e-20)
(-0.0232344985233867 -0.00317925051182312 3.81864024350532e-20)
(-0.0218474134158701 -0.00285838945075842 -3.32883346750875e-20)
(-0.0205697718536326 -0.002498381098644 -0)
(-0.0194743180808094 -0.0021088651062882 7.71268395273735e-21)
(-0.0185793104076943 -0.0016851755474229 -0)
(-0.0179090792226733 -0.00122514066983749 -0)
(-0.0174920049472003 -0.000730556004793554 -5.4244175196683e-19)
(-0.0173556248036726 -0.000211235055315711 -1.5934716205933e-19)
(-0.0173758984742144 5.25882895113534e-10 -1.27330872866221e-33)
(-0.017375898379744 -9.2370369626637e-20 0)
(-0.0173758983797442 4.61851848133144e-20 0)
(-0.0173758983797444 3.65995804180997e-20 0)
(-0.0173758983797449 -8.27847652314172e-20 0)
(-0.0173758983797438 4.61851848137328e-20 0)
(-0.017375898379744 -8.04688690535069e-18 -0)
(-0.0173758983797445 8.00070172068313e-18 0)
(-0.0173758983797442 3.31139060926243e-20 0)
(-0.0173758983797443 5.92564635340616e-20 0)
(-0.0173758983797444 -2.96282317670322e-20 0)
(-0.017375898379744 1.59848464882615e-17 -1.33359420973189e-32)
(-0.0173758983797446 -1.60014034413063e-17 -1.5928247848961e-37)
(-0.0173758983797436 4.61851848136686e-20 0)
(-0.0173758983797441 0 0)
(-0.0173758983797438 0 0)
(-0.017375898379744 -9.23703696269601e-20 0)
(-0.0173758983797442 4.61851848133143e-20 0)
(-0.0173758983797444 3.65995804181043e-20 0)
(-0.0173758983797445 -8.27847652314123e-20 0)
(-0.0173758983797446 0 0)
(-0.017375898379744 -7.96758781456137e-18 3.98206196224078e-38)
(-0.0173758983797441 8.05995818424948e-18 3.98206196230166e-38)
(-0.017375898379744 -9.23703696256219e-20 0)
(-0.0173758983797446 6.27421378595764e-20 0)
(-0.017375898379744 2.96282317671376e-20 0)
(-0.0173758983797437 1.60014034413073e-17 3.98206196224067e-38)
(-0.0173758983797444 -1.60014034413062e-17 -0)
(-0.0173758983797443 -5.92564635340613e-20 0)
(-0.0173758983797445 -3.31139060925686e-20 0)
(-0.0173758983797443 0 0)
(-0.0173758983797445 3.3113906092378e-20 0)
(-0.0173758983797446 4.61851848130506e-20 0)
(-0.0173758983797444 -7.92990909063445e-20 0)
(-0.0173758983797445 3.31139060925686e-20 0)
(-0.0173758983797447 5.92564635340652e-20 -0)
(-0.0173758983797434 0 0)
(-0.0173758983797438 0 0)
(-0.0173758983797442 -4.61851848134768e-20 0)
(-0.0173758983797436 4.61851848132992e-20 0)
(-0.0173758983797441 0 0)
(-0.0173758983797443 -5.92564635345206e-20 0)
(-0.0173758983797445 -3.31139060925685e-20 0)
(-0.0173758983797443 0 0)
(-0.0173758983797443 6.27421378595965e-20 -0)
(-0.0173758983797443 0 0)
(-0.0173758983797445 -2.96282317670378e-20 0)
(-0.0173758983797443 5.92564635342762e-20 0)
(-0.0173758983797438 0 0)
(-0.0173758983797438 0 0)
(-0.0173758983797439 -4.61851848136699e-20 0)
(-0.0173758983797445 1.65569530462836e-20 -0)
(-0.017375898379744 2.96282317670301e-20 -0)
(-0.017375898379744 -9.23703696266252e-20 0)
(-0.0173758983797441 3.31139060925709e-20 -0)
(-0.0173758983797449 -3.3113906092624e-20 0)
(-0.0173758983797439 0 0)
(-0.0173758983797445 4.61851848126539e-20 0)
(-0.0173758983797441 -4.61851848137297e-20 0)
(-0.0173758983797439 0 0)
(-0.0173758983797444 9.2370369626631e-20 0)
(-0.017375898379744 -9.23703696266249e-20 0)
(-0.017375898379744 9.23703696266252e-20 0)
(-0.0173758984742145 -5.25882895034302e-10 -4.24506394948171e-34)
(-0.0173556248036727 0.000211235055316216 0)
(-0.0174920049472015 0.000730556004794042 1.23234652992765e-21)
(-0.0179090792226692 0.00122514066983764 2.17324635286255e-21)
(-0.0185793104076857 0.00168517554742249 0)
(-0.019474318080806 0.00210886510628829 7.57791403717596e-21)
(-0.020569771853644 0.00249838109864575 9.41316374231017e-21)
(-0.0218474134158766 0.00285838945075937 -1.10532302932666e-20)
(-0.0232344985233896 0.00317925051182364 1.26790401874976e-20)
(-0.0246073121973031 0.00344908204821618 -4.23335343177671e-20)
(-0.0259309306973902 0.00368075057425648 -4.60752263053612e-20)
(-0.0271853251436139 0.00388349806749232 0)
(-0.0283504065399807 0.00406161920947858 0)
(-0.0294338118814842 0.00422084468285606 1.80510278313227e-20)
(-0.0306061841600681 0.00439289412527703 5.65401895081058e-20)
(-0.0319532105918729 0.00459214251053637 5.93972818903004e-20)
(-0.0335045688776682 0.00482219726224454 6.27979957253886e-20)
(-0.0352965967030522 0.00508724643764809 6.68553359160672e-20)
(-0.0373740143250194 0.00539229729477845 -7.16062849975317e-20)
(-0.039582573672625 0.00571301319526062 -7.64393502607848e-20)
(-0.0413654416343951 0.00596944625456654 2.65043275561399e-20)
(-0.0424690602322721 0.00611687792524112 -2.66581947243089e-20)
(-0.0426539285082545 0.00608369857238706 -2.56473600017915e-20)
(-0.0415897581974394 0.00572108118973801 2.29361620356958e-20)
(-0.0391425485844078 0.00477115575822101 0)
(-0.0363359683286058 0.00309794472317996 -1.63684132538222e-20)
(-0.03502044584189 0.00144363301542474 0)
(-0.0347415976437911 0.000285277221020764 6.04019509604231e-23)
(-0.0347517967595113 0 0)
)
;
    }
    topWall
    {
        type            calculated;
        value           nonuniform List<vector> 
120
(
(-0.0335752276144479 -1.12352884942209e-19 0)
(-0.0335752276144553 0 0)
(-0.0335752276144479 0 0)
(-0.0335752276144479 0 0)
(-0.0335752276144553 0 0)
(-0.0335752276144332 0 0)
(-0.0335752276144405 0 0)
(-0.0335752276144405 0 0)
(-0.0335752276144553 0 0)
(-0.0335752276144405 0 0)
(-0.0335752276144405 0 0)
(-0.0335752276144479 0 0)
(-0.0335752276144405 0 0)
(-0.0335752276144626 0 0)
(-0.0335752276144405 0 0)
(-0.0335752276144479 0 0)
(-0.0335752276144405 0 0)
(-0.0335752276144479 0 0)
(-0.0335752276144405 0 0)
(-0.0335752276144405 0 0)
(-0.0335752276144405 0 0)
(-0.0335752276144405 0 0)
(-0.0335752276144405 0 0)
(-0.0335752276144405 0 0)
(-0.0335752276144405 0 0)
(-0.0335752276144479 0 0)
(-0.0335752276144405 0 0)
(-0.0335752276144479 0 0)
(-0.0335752276144479 0 0)
(-0.0335752276144479 0 0)
(-0.0335752276144553 0 0)
(-0.0335752276144405 0 0)
(-0.0335752276144479 0 0)
(-0.0335752276144479 0 0)
(-0.0335752276144479 0 0)
(-0.0335752276144479 0 0)
(-0.0335752276144405 0 0)
(-0.0335752276144479 0 0)
(-0.0335752276144479 0 0)
(-0.0335752276144479 0 0)
(-0.0335752276144479 0 0)
(-0.0335752276144405 0 0)
(-0.0335752276144479 0 0)
(-0.0335752276144479 0 0)
(-0.0335752276144479 0 0)
(-0.0335752276144479 0 0)
(-0.0335752276144479 0 0)
(-0.0335752276144479 0 0)
(-0.0335752276144405 0 0)
(-0.0335752276144553 0 0)
(-0.0335752276144479 0 0)
(-0.0335752276144405 0 0)
(-0.0335752276144479 0 0)
(-0.0335752276144479 0 0)
(-0.0335752276144479 0 0)
(-0.0335752276144626 0 0)
(-0.0335752276144479 0 0)
(-0.0335752276144332 0 0)
(-0.0335752276144553 0 0)
(-0.0335752276144405 0 0)
(-0.0335752276144553 0 0)
(-0.0335752276144553 0 0)
(-0.0335752276144405 0 0)
(-0.0335752276144553 0 0)
(-0.0335752276144479 0 0)
(-0.0335752276144405 0 0)
(-0.0335752276144479 0 0)
(-0.0335752276144405 0 0)
(-0.0335752276144553 0 0)
(-0.0335752276144479 0 0)
(-0.0335752276144405 0 0)
(-0.0335752276144553 0 0)
(-0.0335752276144405 0 0)
(-0.0335752276144553 0 0)
(-0.0335752276144479 0 0)
(-0.0335752276144479 0 0)
(-0.0335752276144553 0 0)
(-0.0335752276144405 0 0)
(-0.0335752276144553 0 0)
(-0.0335752276144479 0 0)
(-0.0335752276144553 0 0)
(-0.0335752276144479 0 0)
(-0.0335752276144332 0 0)
(-0.0335752276144626 0 0)
(-0.0335752276144405 0 0)
(-0.0335752276144479 0 0)
(-0.0335752276144479 0 0)
(-0.0335752276144332 0 0)
(-0.0335752276144553 0 0)
(-0.0335752276144479 0 0)
(-0.0335752276144553 0 0)
(-0.0335752276144479 0 0)
(-0.0335752276144405 0 0)
(-0.0335752276144479 0 0)
(-0.0335752276144405 0 0)
(-0.0335752276144479 0 0)
(-0.0335752276144553 0 0)
(-0.0335752276144405 0 0)
(-0.0335752276144553 0 0)
(-0.0335752276144553 0 0)
(-0.0335752276144553 0 0)
(-0.0335752276144553 0 0)
(-0.0335752276144258 0 0)
(-0.0335752276144553 0 0)
(-0.0335752276144553 0 0)
(-0.0335752276144405 0 0)
(-0.0335752276144479 0 0)
(-0.0335752276144405 0 0)
(-0.0335752276144405 0 0)
(-0.0335752276144405 0 0)
(-0.0335752276144405 0 0)
(-0.0335752276144405 0 0)
(-0.0335752276144405 0 0)
(-0.0335752276144553 0 0)
(-0.0335752276144405 0 0)
(-0.0335752276144405 0 0)
(-0.0335752276144405 0 0)
(-0.0335752276144405 0 0)
(-0.0335752276144405 0 0)
(-0.0335752276144405 0 0)
)
;
    }
    inlet_half0
    {
        type            cyclic;
    }
    inlet_half1
    {
        type            cyclic;
    }
    outlet_half0
    {
        type            cyclic;
    }
    outlet_half1
    {
        type            cyclic;
    }
    sideRight_half0
    {
        type            empty;
    }
    sideRight_half1
    {
        type            empty;
    }
    sideLeft_half0
    {
        type            empty;
    }
    sideLeft_half1
    {
        type            empty;
    }
}


// ************************************************************************* //
