1.00000000000453e-06 	1.00195556483898 	0 	0.872211124102092 	0.00141258501276695 	1588.04035172592
1.00000000000453e-06 	1.00593833258374 	0 	0.872295165425726 	0.00714814251565621 	755.193793413153
1.00000000000453e-06 	1.01006700077429 	0 	0.872525169666484 	0.0166535854422088 	229.230756879356
1.00000000000453e-06 	1.0143469141712 	0 	0.872952535810046 	0.0253843484611892 	119.879438801529
1.00000000000453e-06 	1.01878361332929 	0 	0.873570531354355 	0.0315735419345799 	75.3815053863298
1.00000000000453e-06 	1.02338284177015 	-3.46944695195361e-18 	0.874358051225426 	0.0365309612454045 	52.125678063115
1.00000000000453e-06 	1.02815055341735 	-6.93889390390723e-18 	0.875306338391594 	0.0409788670749598 	38.5922192605485
1.00000000000453e-06 	1.03309292030413 	-6.93889390390723e-18 	0.876403877778651 	0.0450753833726088 	30.0721327106348
1.00000000000453e-06 	1.03821634056339 	-6.93889390390723e-18 	0.877637435032086 	0.0488441883871156 	24.3357354891344
1.00000000000453e-06 	1.04352744671036 	-1.04083408558608e-17 	0.878998119748857 	0.0522984460669874 	20.2545623403534
1.00000000000453e-06 	1.04903311422874 	-1.04083408558608e-17 	0.880481327116596 	0.0554587241384052 	17.221054950123
1.00000000000453e-06 	1.05474047047132 	-6.93889390390723e-18 	0.882085003417233 	0.0583501265972527 	14.887210498115
1.00000000000453e-06 	1.06065690388671 	-3.46944695195361e-18 	0.883808470879252 	0.0609984496053433 	13.0419513230371
1.00000000000453e-06 	1.06679007358401 	-3.46944695195361e-18 	0.885651750257478 	0.0634279993862193 	11.5506546929884
1.00000000000453e-06 	1.07314791924792 	-6.93889390390723e-18 	0.887615135639758 	0.0656606670265077 	10.3236824805751
1.00000000000453e-06 	1.07973867141705 	-3.46944695195361e-18 	0.889698921153616 	0.0677156893695637 	9.29912418043066
1.00000000000453e-06 	1.08657086213875 	0 	0.891903224947555 	0.0696097370861527 	8.43286900010359
1.00000000000453e-06 	1.09365333601424 	0 	0.894227873168515 	0.0713571387828672 	7.6926438120246
1.00000000000453e-06 	1.10099526164836 	3.46944695195361e-18 	0.896672321603134 	0.0729701466037796 	7.05429387422275
1.00000000000453e-06 	1.10860614351884 	6.93889390390723e-18 	0.899235602518791 	0.0744591994291415 	6.49938319979347
1.00000000000453e-06 	1.11649583428022 	3.46944695195361e-18 	0.901916289968008 	0.0758331650893788 	6.013599424735
1.00000000000453e-06 	1.12467454751866 	6.93889390390723e-18 	0.904712480309716 	0.0770995549724497 	5.58566511626353
1.00000000000453e-06 	1.13315287097387 	1.73472347597681e-17 	0.907621785074912 	0.0782647100405366 	5.20657738053381
1.00000000000453e-06 	1.1419417802455 	2.08166817117217e-17 	0.910641332234425 	0.0793339603218696 	4.86906588000569
1.00000000000453e-06 	1.15105265300152 	1.38777878078145e-17 	0.913767772605589 	0.080311761297137 	4.5671994788237
1.00000000000453e-06 	1.1604972837072 	1.04083408558608e-17 	0.916997290712525 	0.0812018108091059 	4.29609598797989
1.00000000000453e-06 	1.17028789889366 	1.38777878078145e-17 	0.920325622347225 	0.0820071499571348 	4.05170449345261
1.00000000000453e-06 	1.1804371729856 	1.73472347597681e-17 	0.9237480808077 	0.0827302509430636 	3.83063946084427
1.00000000000453e-06 	1.19095824470904 	2.42861286636753e-17 	0.927259591833537 	0.0833730940842507 	3.63005233650354
1.00000000000453e-06 	1.20186473410003 	2.42861286636753e-17 	0.930854736505534 	0.0839372355173384 	3.44753078575913
1.00000000000453e-06 	1.21317076013637 	2.08166817117217e-17 	0.934527800825037 	0.0844238666380834 	3.28101869633453
1.00000000000453e-06 	1.22489095901542 	2.08166817117217e-17 	0.938272830118226 	0.0848338660699947 	3.12875208955558
1.00000000000453e-06 	1.23704050310128 	2.08166817117217e-17 	0.942083685964762 	0.0851678448724346 	2.98920744101141
1.00000000000453e-06 	1.24963512056619 	2.42861286636753e-17 	0.945954102799185 	0.0854261857146057 	2.86105983052456
1.00000000000453e-06 	1.26269111575139 	2.77555756156289e-17 	0.949877740381997 	0.0856090767922238 	2.74314896075213
1.00000000000453e-06 	1.27622539027388 	2.77555756156289e-17 	0.953848228455727 	0.0857165413102697 	2.63445150423519
1.00000000000453e-06 	1.29025546490643 	2.77555756156289e-17 	0.957859204451368 	0.0857484633952756 	2.53405855121343
1.00000000000453e-06 	1.30479950225895 	2.77555756156289e-17 	0.961904350223517 	0.0857046113579239 	2.44115720863511
1.00000000000453e-06 	1.31987633029101 	3.12250225675825e-17 	0.965977429168944 	0.0855846592543475 	2.35501565984697
1.00000000000453e-06 	1.33550546668544 	3.81639164714898e-17 	0.97007231745859 	0.0853882076208241 	2.27497120308645
1.00000000000453e-06 	1.35170714411495 	3.81639164714898e-17 	0.974183024803153 	0.0851148042022917 	2.20042087267883
1.00000000000453e-06 	1.3685023364343 	3.81639164714898e-17 	0.978303706654227 	0.0847639654551152 	2.1308141946724
1.00000000000453e-06 	1.38591278583198 	4.16333634234434e-17 	0.982428672649667 	0.0843351993518128 	2.06564757753323
1.00000000000453e-06 	1.40396103097652 	4.16333634234434e-17 	0.986552394387726 	0.0838280296462639 	2.00445989760335
1.00000000000453e-06 	1.42267043619387 	3.81639164714898e-17 	0.990669513790942 	0.0832420214210891 	1.94682896075003
1.00000000000453e-06 	1.44206522171365 	3.12250225675825e-17 	0.994774851871789 	0.0825768074025337 	1.89236863016693
1.00000000000453e-06 	1.46217049502345 	3.12250225675825e-17 	0.998863415993322 	0.081832114435818 	1.84072650508694
1.00000000000453e-06 	1.48301228337162 	2.77555756156289e-17 	1.00293040427643 	0.0810077897685765 	1.79158210594802
1.00000000000453e-06 	1.50461756746086 	2.42861286636753e-17 	1.00697120793486 	0.0801038269806211 	1.74464552436726
1.00000000000453e-06 	1.52701431637603 	2.77555756156289e-17 	1.01098141266113 	0.0791203913046022 	1.69965645870313
1.00000000000453e-06 	1.55023152379144 	3.46944695195361e-17 	1.01495679920191 	0.0780578439247876 	1.65638354079378
1.00000000000453e-06 	1.57429924550461 	3.81639164714898e-17 	1.01889334304332 	0.0769167648161446 	1.61462387876352
1.00000000000453e-06 	1.59924863834497 	3.46944695195361e-17 	1.02278721334934 	0.0756979737493292 	1.57420276550376
1.00000000000453e-06 	1.62511200050782 	4.16333634234434e-17 	1.02663477138908 	0.0744025491506118 	1.53497351807179
1.00000000000453e-06 	1.65192281336593 	4.5102810375397e-17 	1.03043256845533 	0.0730318445679039 	1.49681742917483
1.00000000000453e-06 	1.67971578481283 	3.81639164714898e-17 	1.03417734311412 	0.0715875025545503 	1.45964383145622
1.00000000000453e-06 	1.70852689419381 	3.81639164714898e-17 	1.0378660176543 	0.0700714658097975 	1.42339029628323
1.00000000000453e-06 	1.73839343888296 	4.16333634234434e-17 	1.04149569360345 	0.0684859853778824 	1.38802301081683
1.00000000000453e-06 	1.76935408256639 	4.5102810375397e-17 	1.04506364615194 	0.0668336255811788 	1.35353739997734
1.00000000000453e-06 	1.80144890529426 	4.85722573273506e-17 	1.04856731669281 	0.0651172651008434 	1.31995908286211
1.00000000000453e-06 	1.83471945536634 	4.85722573273506e-17 	1.05200430243338 	0.0633400931544502 	1.28734527563473
1.00000000000453e-06 	1.86920880311829 	4.5102810375397e-17 	1.05537235324723 	0.0615055989384185 	1.25578677451787
1.00000000000453e-06 	1.9049615966783 	5.20417042793042e-17 	1.05866940744255 	0.0596175511240082 	1.22541067133962
1.00000000000453e-06 	1.94202411976624 	5.8702771376512e-17 	1.06189355799884 	0.0576799469014335 	1.19638382189193
1.00000000001227e-06 	1.98044435161019 	1.38777878078145e-17 	1.06504200366102 	0.0556972580040271 	1.16892146779463
1.00000000001227e-06 	2.02024009608346 	1.38777878078145e-17 	1.06808656495506 	0.0536921683611821 	1.14349615757181
1.00000000001227e-06 	2.06000503604194 	6.93889390390723e-18 	1.0709542438171 	0.0517227184656596 	1.12092691944191
1.00000000001227e-06 	2.09836474743797 	0 	1.07358729892827 	0.0498419731117323 	1.10178002338435
1.00000000001227e-06 	2.13536888877258 	0 	1.07598830896643 	0.0480627194258276 	1.08604665691314
1.00000000001227e-06 	2.17106536369585 	3.46944695195361e-18 	1.0781829573002 	0.0463797997596062 	1.07352802442862
1.00000000001227e-06 	2.20550038302045 	3.46944695195361e-18 	1.08019358005188 	0.0447878314245105 	1.06405485282843
1.00000000001227e-06 	2.23871852454379 	-6.93889390390723e-18 	1.08203935971209 	0.0432813879330581 	1.05748433021281
1.00000000001227e-06 	2.27076279075614 	-1.38777878078145e-17 	1.08373695039194 	0.0418551233354874 	1.05369779502978
1.00000000001227e-06 	2.30167466450941 	-1.38777878078145e-17 	1.08530088964707 	0.040503856417064 	1.05259902346963
1.00000000001227e-06 	2.33149416271873 	-1.04083408558608e-17 	1.08674391611351 	0.0392226262267933 	1.0541129631624
1.00000000001227e-06 	2.36025988816627 	-1.04083408558608e-17 	1.08807723641782 	0.0380067267458451 	1.05818480040585
1.00000000001227e-06 	2.38800907947441 	-1.38777878078145e-17 	1.08931074788722 	0.0368517262924747 	1.06477928894548
1.00000000001227e-06 	2.41477765931296 	-1.38777878078145e-17 	1.0904532239313 	0.0357534757942255 	1.07388029994309
1.00000000001227e-06 	2.44060028090273 	-1.38777878078145e-17 	1.09151246916771 	0.0347081090232655 	1.08549057465197
1.00000000001227e-06 	2.46551037287587 	-1.38777878078145e-17 	1.09249544986877 	0.0337120371317283 	1.09963167583929
1.00000000001227e-06 	2.48954018255081 	-1.38777878078145e-17 	1.09340840411386 	0.0327619392534702 	1.11634414373561
1.00000000001227e-06 	2.512720817678 	-1.38777878078145e-17 	1.09425693518275 	0.0318547505033216 	1.13568786929822
1.00000000001227e-06 	2.53508228671037 	-1.38777878078145e-17 	1.09504609105615 	0.0309876483702482 	1.15774270333826
1.00000000001227e-06 	2.55665353765073 	-1.04083408558608e-17 	1.09578043235197 	0.0301580382430257 	1.18260932562468
1.00000000001227e-06 	2.57746249552637 	-1.04083408558608e-17 	1.09646409059566 	0.0293635386086672 	1.21041040419522
1.00000000001227e-06 	2.59753609853934 	-1.04083408558608e-17 	1.0971008183781 	0.0286019663118001 	1.24129208236528
1.00000000001227e-06 	2.6169003329393 	-6.93889390390723e-18 	1.09769403267677 	0.0278713221473407 	1.27542583986106
1.00000000001227e-06 	2.6355802666639 	-1.38777878078145e-17 	1.09824685239187 	0.0271697769712975 	1.31301078566764
1.00000000001227e-06 	2.6536000817905 	-2.08166817117217e-17 	1.09876213096742 	0.0264956584492128 	1.35427645421785
1.00000000001227e-06 	2.67098310584103 	-2.08166817117217e-17 	1.09924248481984 	0.0258474385138565 	1.39948619425588
1.00000000001227e-06 	2.68775184198057 	-2.77555756156289e-17 	1.09969031817635 	0.0252237215696078 	1.44894126212349
1.00000000001227e-06 	2.7039279981488 	-3.46944695195361e-17 	1.10010784482715 	0.0246232334576645 	1.50298575969008
1.00000000001227e-06 	2.71953251516198 	-3.46944695195361e-17 	1.10049710721484 	0.0240448111816244 	1.56201259347618
1.00000000001227e-06 	2.73458559382185 	-3.46944695195361e-17 	1.10085999321794 	0.0234873933854617 	1.62647067809703
1.00000000001227e-06 	2.74910672106653 	-3.46944695195361e-17 	1.10119825093065 	0.0229500115742571 	1.69687366719368
1.00000000001227e-06 	2.76311469519732 	-3.46944695195361e-17 	1.10151350169508 	0.0224317820713449 	1.7738105728698
1.00000000001227e-06 	2.776627650214 	-3.46944695195361e-17 	1.10180725160457 	0.0219318987131893 	1.85795873623121
1.00000000001227e-06 	2.78966307929018 	-3.46944695195361e-17 	1.10208090166425 	0.0214496262948398 	1.95009974505031
1.00000000001227e-06 	2.80223785741905 	-3.81639164714898e-17 	1.10233575676844 	0.0209842947939293 	2.05113907108203
1.00000000001227e-06 	2.81436826325886 	-4.5102810375397e-17 	1.10257303363134 	0.0205352944195998 	2.1621304348146
1.00000000001227e-06 	2.82607000020648 	-4.85722573273506e-17 	1.10279386778789 	0.0201020715542022 	2.28430622152234
1.00000000001227e-06 	2.83735821672614 	-5.55111512312578e-17 	1.10299931976482 	0.0196841256796897 	2.41911570078315
1.00000000001227e-06 	2.8482475259599 	-6.24500451351651e-17 	1.10319038050695 	0.0192810074065943 	2.56827338720854
1.00000000001227e-06 	2.85875202464506 	-6.24500451351651e-17 	1.1033679761309 	0.0188923177499379 	2.73382068843069
1.00000000001227e-06 	2.86888531136304 	-6.24500451351651e-17 	1.10353297206685 	0.0185177088207776 	2.91820511340077
1.00000000001227e-06 	2.87866050414343 	-6.24500451351651e-17 	1.10368617663811 	0.0181568861194054 	3.12438290229155
1.00000000001227e-06 	2.88809025744591 	-6.24500451351651e-17 	1.10382834411904 	0.0178096126174078 	3.35595320293604
1.00000000001227e-06 	2.89718677854204 	-6.24500451351651e-17 	1.10396017730232 	0.0174757147840955 	3.61733518384941
1.00000000001227e-06 	2.90596184331819 	-6.24500451351651e-17 	1.10408232959806 	0.0171550906175604 	3.91400424391362
1.00000000001227e-06 	2.91442681151997 	-6.59194920871187e-17 	1.10419540667793 	0.0168477195258547 	4.252810542843
1.00000000001227e-06 	2.92259264145801 	-6.93889390390723e-17 	1.10429996766842 	0.0165536734674477 	4.64241369201127
1.00000000001227e-06 	2.93046990419395 	-7.28583859910259e-17 	1.10439652588646 	0.016273127915832 	5.09388365270775
1.00000000001227e-06 	2.93806879722526 	-7.63278329429795e-17 	1.10448554909777 	0.0160063696195835 	5.6215430685557
1.00000000001227e-06 	2.94539915768639 	-7.28583859910259e-17 	1.10456745926237 	0.0157537951579945 	6.24416614220971
1.00000000001227e-06 	2.95247047508335 	-6.93889390390723e-17 	1.10464263170902 	0.0155158887795508 	6.98671373914612
1.00000000001227e-06 	2.9592919035784 	-6.93889390390723e-17 	1.10471139364718 	0.0152931577808931 	7.88289162357189
1.00000000001227e-06 	2.96587227384056 	-6.93889390390723e-17 	1.10477402187004 	0.0150859846283415 	8.97900214945537
1.00000000001227e-06 	2.97222010447726 	-7.28583859910259e-17 	1.1048307394389 	0.0148943192635518 	10.3398848677363
1.00000000001227e-06 	2.97834361306218 	-7.97972798949331e-17 	1.10488171107571 	0.0147170671421558 	12.0583432411975
1.00000000001227e-06 	2.98425072677325 	-7.97972798949331e-17 	1.10492703643912 	0.0145508973831593 	14.2706278048011
1.00000000001227e-06 	2.98994909265478 	-7.63278329429795e-17 	1.10496673796093 	0.0143879352356612 	17.1829793914465
1.00000000001227e-06 	2.99544608751689 	-7.63278329429795e-17 	1.10500073928326 	0.0142112666642257 	21.1196611926984
1.00000000001227e-06 	3.00074882748522 	-7.97972798949331e-17 	1.10502884988116 	0.0139860160742887 	26.6161062546809
1.00000000001227e-06 	3.00586417721304 	-8.67361737988404e-17 	1.10505073850251 	0.0136410790746828 	34.6159461239188
1.00000000001227e-06 	3.01079875876789 	-9.0205620750794e-17 	1.10506537427188 	0.0130303828492401 	46.9360744716456
1.00000000001227e-06 	3.01555896020418 	-9.0205620750794e-17 	1.10506905672091 	0.011852265847843 	67.5357070217393
1.00000000001227e-06 	3.02015094383281 	-9.71445146547012e-17 	1.10505704083061 	0.00955820058572496 	106.915679322839
1.00000000001227e-06 	3.02458065419862 	-1.00613961606655e-16 	1.10503371859407 	0.00592486064728863 	207.328132274287
1.00000000001227e-06 	3.02885382577583 	-1.04083408558608e-16 	1.10501351615934 	0.00230953500834137 	699.928763012838
