1.00000000000453e-06 	1.00195556483898 	0 	0.87214662504464 	0.00141331809913744 	1588.04384522678
1.00000000000453e-06 	1.00593833258374 	0 	0.872230708701407 	0.00715130703083042 	755.206078963047
1.00000000000453e-06 	1.01006700077429 	0 	0.872460822659624 	0.0166596922895123 	229.249432517025
1.00000000000453e-06 	1.0143469141712 	0 	0.872888379837822 	0.0253918160713261 	119.897227582945
1.00000000000453e-06 	1.01878361332929 	0 	0.873506638090071 	0.0315809665293336 	75.3950193499571
1.00000000000453e-06 	1.02338284177015 	-3.46944695195361e-18 	0.874294487264227 	0.0365381126998338 	52.1351767189162
1.00000000000453e-06 	1.02815055341735 	-6.93889390390723e-18 	0.875243173530347 	0.0409858884876699 	38.5988731166728
1.00000000000453e-06 	1.03309292030413 	-6.93889390390723e-18 	0.876341180022135 	0.0450824385836304 	30.0769411912161
1.00000000000453e-06 	1.03821634056339 	-6.93889390390723e-18 	0.877575267444821 	0.0488513778618176 	24.3393555425388
1.00000000000453e-06 	1.04352744671036 	-1.04083408558608e-17 	0.878936541128156 	0.0523058134326664 	20.2573977985348
1.00000000000453e-06 	1.04903311422874 	-1.04083408558608e-17 	0.88042039354501 	0.0554662768181031 	17.2233545068793
1.00000000000453e-06 	1.05474047047132 	-6.93889390390723e-18 	0.882024769477617 	0.0583578513099813 	14.8891313151812
1.00000000000453e-06 	1.06065690388671 	-3.46944695195361e-18 	0.883748990398886 	0.0610063216952355 	13.0435959494724
1.00000000000453e-06 	1.06679007358401 	-3.46944695195361e-18 	0.885593076695674 	0.0634359880329076 	11.5520921818526
1.00000000000453e-06 	1.07314791924792 	-6.93889390390723e-18 	0.887557322244018 	0.0656687380548801 	10.3249606813065
1.00000000000453e-06 	1.07973867141705 	-3.46944695195361e-18 	0.889642020974323 	0.0677238067192566 	9.30027709935671
1.00000000000453e-06 	1.08657086213875 	0 	0.891847290767317 	0.0696178635435358 	8.43392134490209
1.00000000000453e-06 	1.09365333601424 	0 	0.894172957379876 	0.0713652363104427 	7.69361388214707
1.00000000000453e-06 	1.10099526164836 	3.46944695195361e-18 	0.896618476055391 	0.0729781764526484 	7.05519545041746
1.00000000000453e-06 	1.10860614351884 	6.93889390390723e-18 	0.899182878348605 	0.074467122137592 	6.50022680998142
1.00000000000453e-06 	1.11649583428022 	3.46944695195361e-18 	0.901864737428106 	0.0758409404237521 	6.01439321092427
1.00000000000453e-06 	1.12467454751866 	6.93889390390723e-18 	0.904662148604412 	0.0771071418399953 	5.58641544083665
1.00000000000453e-06 	1.13315287097387 	1.73472347597681e-17 	0.907572722199924 	0.0782720663912651 	5.20728925926731
1.00000000000453e-06 	1.1419417802455 	2.08166817117217e-17 	0.910593584813664 	0.0793410430503581 	4.86974329819025
1.00000000000453e-06 	1.15105265300152 	1.38777878078145e-17 	0.913721385721691 	0.080318526151771 	4.56784562715766
1.00000000000453e-06 	1.1604972837072 	1.04083408558608e-17 	0.916952307738859 	0.081208212314965 	4.29671344150928
1.00000000000453e-06 	1.17028789889366 	1.38777878078145e-17 	0.920282084792127 	0.0820131413578374 	4.0522953482288
1.00000000000453e-06 	1.1804371729856 	1.73472347597681e-17 	0.923706028177078 	0.0827357841652107 	3.83120543801154
1.00000000000453e-06 	1.19095824470904 	2.42861286636753e-17 	0.927219061516468 	0.0833781197262427 	3.63059486074033
1.00000000000453e-06 	1.20186473410003 	2.42861286636753e-17 	0.930815763686293 	0.083941702862843 	3.44805104335828
1.00000000000453e-06 	1.21317076013637 	2.08166817117217e-17 	0.934490418423358 	0.0844277236935709 	3.28151767714273
1.00000000000453e-06 	1.22489095901542 	2.08166817117217e-17 	0.93823706875813 	0.0848370596255289 	3.1292306162198
1.00000000000453e-06 	1.23704050310128 	2.08166817117217e-17 	0.942049573971533 	0.0851703205851611 	2.98966618839463
1.00000000000453e-06 	1.24963512056619 	2.42861286636753e-17 	0.945921666226867 	0.0854278882148824 	2.86149933774094
1.00000000000453e-06 	1.26269111575139 	2.77555756156289e-17 	0.949847003077916 	0.0856099498127892 	2.74356963802786
1.00000000000453e-06 	1.27622539027388 	2.77555756156289e-17 	0.953819212152494 	0.0857165278389645 	2.63485363660075
1.00000000000453e-06 	1.29025546490643 	2.77555756156289e-17 	0.957831928833142 	0.0857475058515682 	2.53444230053355
1.00000000000453e-06 	1.30479950225895 	2.77555756156289e-17 	0.961878832933873 	0.0857026517933438 	2.44152261472128
1.00000000000453e-06 	1.31987633029101 	3.12250225675825e-17 	0.965953685797696 	0.0855816395779723 	2.35536264072833
1.00000000000453e-06 	1.33550546668544 	3.81639164714898e-17 	0.970050361545127 	0.0853840698523206 	2.2752995543594
1.00000000000453e-06 	1.35170714411495 	3.81639164714898e-17 	0.974162867850518 	0.0851094907553449 	2.20073026657294
1.00000000000453e-06 	1.3685023364343 	3.81639164714898e-17 	0.978285358123439 	0.0847574194546368 	2.13110418024528
1.00000000000453e-06 	1.38591278583198 	4.16333634234434e-17 	0.982412139925685 	0.0843273649890094 	2.06591758335263
1.00000000000453e-06 	1.40396103097652 	4.16333634234434e-17 	0.986537682728252 	0.0838188525750327 	2.00470923764185
1.00000000000453e-06 	1.42267043619387 	3.81639164714898e-17 	0.99065662626155 	0.0832314491975845 	1.94705684353739
1.00000000000453e-06 	1.44206522171365 	3.12250225675825e-17 	0.994763789275461 	0.0825647899677981 	1.89257417081273
1.00000000000453e-06 	1.46217049502345 	3.12250225675825e-17 	0.998854176809771 	0.081818604639076 	1.84090873957574
1.00000000000453e-06 	1.48301228337162 	2.77555756156289e-17 	1.00292298462292 	0.0809927439266435 	1.79174000708289
1.00000000000453e-06 	1.50461756746086 	2.42861286636753e-17 	1.00696560155056 	0.0800872054678025 	1.74477801889636
1.00000000000453e-06 	1.52701431637603 	2.77555756156289e-17 	1.01097761091393 	0.0791021591671575 	1.6997624453331
1.00000000000453e-06 	1.55023152379144 	3.46944695195361e-17 	1.01495479111788 	0.0780379715137167 	1.65646190883598
1.00000000000453e-06 	1.57429924550461 	3.81639164714898e-17 	1.01889311535728 	0.0768952284317159 	1.61467352712572
1.00000000000453e-06 	1.59924863834497 	3.46944695195361e-17 	1.02278875057298 	0.0756747562907126 	1.57422262171226
1.00000000000453e-06 	1.62511200050782 	4.16333634234434e-17 	1.02663805589203 	0.074377640764258 	1.53496255700206
1.00000000000453e-06 	1.65192281336593 	4.5102810375397e-17 	1.03043758055411 	0.0730052432887776 	1.49677469117278
1.00000000000453e-06 	1.67971578481283 	3.81639164714898e-17 	1.03418406116461 	0.0715592149349434 	1.45956843955188
1.00000000000453e-06 	1.70852689419381 	3.81639164714898e-17 	1.03787441814368 	0.0700415075311361 	1.42328147224092
1.00000000000453e-06 	1.73839343888296 	4.16333634234434e-17 	1.04150575123772 	0.0684543818415549 	1.38788008982995
1.00000000000453e-06 	1.76935408256639 	4.5102810375397e-17 	1.0450753339332 	0.0668004124747198 	1.35335984389667
1.00000000000453e-06 	1.80144890529426 	4.85722573273506e-17 	1.04858060597495 	0.0650824889352459 	1.31974649193245
1.00000000000453e-06 	1.83471945536634 	4.85722573273506e-17 	1.05201916294255 	0.0633038117656793 	1.28709739878132
1.00000000000453e-06 	1.86920880311829 	4.5102810375397e-17 	1.05538875316727 	0.0614678819382123 	1.25550351820871
1.00000000000453e-06 	1.9049615966783 	5.20417042793042e-17 	1.05868731353739 	0.0595784802626664 	1.22509210677028
1.00000000000453e-06 	1.94202411976624 	5.8702771376512e-17 	1.06191293484199 	0.0576396249942857 	1.19603026624331
1.00000000001227e-06 	1.98044435161019 	1.38777878078145e-17 	1.06506281232496 	0.0556558203422323 	1.16853359435203
1.00000000001227e-06 	2.02024009608346 	1.38777878078145e-17 	1.0681087525479 	0.0536497756583554 	1.14307517025333
1.00000000001227e-06 	2.06000503604194 	6.93889390390723e-18 	1.07097772518738 	0.0516795462783073 	1.1204749012422
1.00000000001227e-06 	2.09836474743797 	0 	1.07361196476325 	0.0497982036870062 	1.10129979576643
1.00000000001227e-06 	2.13536888877258 	0 	1.07601405272804 	0.048018526846973 	1.0855411500457
1.00000000001227e-06 	2.17106536369585 	3.46944695195361e-18 	1.0782096845089 	0.0463353428858272 	1.07300000067019
1.00000000001227e-06 	2.20550038302045 	3.46944695195361e-18 	1.08022120626853 	0.0447432549577166 	1.06350692159538
1.00000000001227e-06 	2.23871852454379 	-6.93889390390723e-18 	1.08206780907135 	0.0432368234752078 	1.05691896487159
1.00000000001227e-06 	2.27076279075614 	-1.38777878078145e-17 	1.08376615437781 	0.0418106904132563 	1.05311735073409
1.00000000001227e-06 	2.30167466450941 	-1.38777878078145e-17 	1.08533078607158 	0.0404596634613305 	1.05200575524362
1.00000000001227e-06 	2.33149416271873 	-1.04083408558608e-17 	1.0867744482633 	0.0391787714986473 	1.05350904366472
1.00000000001227e-06 	2.36025988816627 	-1.04083408558608e-17 	1.08810835233733 	0.0379632992031474 	1.05757233688056
1.00000000001227e-06 	2.38800907947441 	-1.38777878078145e-17 	1.08934239977396 	0.0368088063929626 	1.06416033892881
1.00000000001227e-06 	2.41477765931296 	-1.38777878078145e-17 	1.0904853676247 	0.0357111362329835 	1.07325688535351
1.00000000001227e-06 	2.44060028090273 	-1.38777878078145e-17 	1.09154506371674 	0.0346664154039597 	1.08486469393774
1.00000000001227e-06 	2.46551037287587 	-1.38777878078145e-17 	1.09252845716645 	0.0336710485722936 	1.09900531388777
1.00000000001227e-06 	2.48954018255081 	-1.38777878078145e-17 	1.093441788589 	0.0327217089279129 	1.11571927925899
1.00000000001227e-06 	2.512720817678 	-1.38777878078145e-17 	1.09429066354092 	0.0318153261219777 	1.13506647940198
1.00000000001227e-06 	2.53508228671037 	-1.38777878078145e-17 	1.09508013206309 	0.0309490726012632 	1.15712676495177
1.00000000001227e-06 	2.55665353765073 	-1.04083408558608e-17 	1.09581475665358 	0.030120349078035 	1.18200081343147
1.00000000001227e-06 	2.57746249552637 	-1.04083408558608e-17 	1.09649867056971 	0.0293267696757188 	1.20981128464413
1.00000000001227e-06 	2.59753609853934 	-1.04083408558608e-17 	1.09713562801303 	0.0285661471385116 	1.24070430327606
1.00000000001227e-06 	2.6169003329393 	-6.93889390390723e-18 	1.09772904747383 	0.0278364783771681 	1.27485131506056
1.00000000001227e-06 	2.6355802666639 	-1.38777878078145e-17 	1.09828204928692 	0.0271359305356471 	1.31245137400645
1.00000000001227e-06 	2.6536000817905 	-2.08166817117217e-17 	1.09879748826934 	0.0264628276979789 	1.35373393222398
1.00000000001227e-06 	2.67098310584103 	-2.08166817117217e-17 	1.09927798216256 	0.0258156383068442 	1.3989622215826
1.00000000001227e-06 	2.68775184198057 	-2.77555756156289e-17 	1.09972593648197 	0.0251929633312182 	1.44843733884312
1.00000000001227e-06 	2.7039279981488 	-3.46944695195361e-17 	1.10014356627773 	0.0245935251971948 	1.50250317437536
1.00000000001227e-06 	2.71953251516198 	-3.46944695195361e-17 	1.10053291523075 	0.0240161574815854 	1.56155236089465
1.00000000001227e-06 	2.73458559382185 	-3.46944695195361e-17 	1.10089587244079 	0.0234597953604377 	1.62603346522144
1.00000000001227e-06 	2.74910672106653 	-3.46944695195361e-17 	1.10123418720907 	0.0229234668030393 	1.69645970609928
1.00000000001227e-06 	2.76311469519732 	-3.46944695195361e-17 	1.10154948207183 	0.0224062845053538 	1.7734195589444
1.00000000001227e-06 	2.776627650214 	-3.46944695195361e-17 	1.1018432643035 	0.0219074385645556 	1.85758970995733
1.00000000001227e-06 	2.78966307929018 	-3.46944695195361e-17 	1.10211693607594 	0.0214261899079261 	1.94975095542179
1.00000000001227e-06 	2.80223785741905 	-3.81639164714898e-17 	1.10237180343343 	0.0209618645045229 	2.0508078184729
1.00000000001227e-06 	2.81436826325886 	-4.5102810375397e-17 	1.10260908421999 	0.0205138484064667 	2.16181289080606
1.00000000001227e-06 	2.82607000020648 	-4.85722573273506e-17 	1.10282991507601 	0.0200815836881281 	2.2839972227845
1.00000000001227e-06 	2.83735821672614 	-5.55111512312578e-17 	1.10303535760445 	0.0196645653755186 	2.41880851356626
1.00000000001227e-06 	2.8482475259599 	-6.24500451351651e-17 	1.10322640379161 	0.0192623394840695 	2.56795943827795
1.00000000001227e-06 	2.85875202464506 	-6.24500451351651e-17 	1.10340398075492 	0.0188745023093398 	2.7334892573287
1.00000000001227e-06 	2.86888531136304 	-6.24500451351651e-17 	1.10356895487828 	0.0185007011394294 	2.9178429796798
1.00000000001227e-06 	2.87866050414343 	-6.24500451351651e-17 	1.10372213538513 	0.0181406365751169 	3.12397393978331
1.00000000001227e-06 	2.88809025744591 	-6.24500451351651e-17 	1.10386427738953 	0.0177940666449359 	3.35547791116579
1.00000000001227e-06 	2.89718677854204 	-6.24500451351651e-17 	1.10399608445676 	0.0174608128708884 	3.61677014438481
1.00000000001227e-06 	2.90596184331819 	-6.24500451351651e-17 	1.10411821069573 	0.017140768345707 	3.91332148686242
1.00000000001227e-06 	2.91442681151997 	-6.59194920871187e-17 	1.10423126239688 	0.0168339076687489 	4.25197680617487
1.00000000001227e-06 	2.92259264145801 	-6.93889390390723e-17 	1.10433579921965 	0.0165402981528875 	4.64138955449665
1.00000000001227e-06 	2.93046990419395 	-7.28583859910259e-17 	1.10443233492297 	0.0162601108731232 	5.09262252122176
1.00000000001227e-06 	2.93806879722526 	-7.63278329429795e-17 	1.10452133761953 	0.0159936285381138 	5.61999000438665
1.00000000001227e-06 	2.94539915768639 	-7.28583859910259e-17 	1.10460322951824 	0.0157412442005625 	6.2422565223329
1.00000000001227e-06 	2.95247047508335 	-6.93889390390723e-17 	1.1046783860971 	0.015503439317734 	6.98437177256679
1.00000000001227e-06 	2.9592919035784 	-6.93889390390723e-17 	1.10474713461485 	0.0152807194542372 	7.88002878714681
1.00000000001227e-06 	2.96587227384056 	-6.93889390390723e-17 	1.10480975181544 	0.0150734668754472 	8.97551567952587
1.00000000001227e-06 	2.97222010447726 	-7.28583859910259e-17 	1.10486646061508 	0.0148816335292938 	10.3356565434488
1.00000000001227e-06 	2.97834361306218 	-7.97972798949331e-17 	1.10491742549874 	0.0147041300221969 	12.0532387923409
1.00000000001227e-06 	2.98425072677325 	-7.97972798949331e-17 	1.10496274580076 	0.0145376350041281 	14.2644972512066
1.00000000001227e-06 	2.98994909265478 	-7.63278329429795e-17 	1.10500244354884 	0.0143742891591001 	17.1756581144697
1.00000000001227e-06 	2.99544608751689 	-7.63278329429795e-17 	1.10503644193018 	0.0141972015530732 	21.1109697685789
1.00000000001227e-06 	3.00074882748522 	-7.97972798949331e-17 	1.10506454996064 	0.0139715295568258 	26.6058409788164
1.00000000001227e-06 	3.00586417721304 	-8.67361737988404e-17 	1.10508643575865 	0.013626216093637 	34.6038361371727
1.00000000001227e-06 	3.01079875876789 	-9.0205620750794e-17 	1.10510106725854 	0.0130152669242086 	46.9216373843996
1.00000000001227e-06 	3.01555896020418 	-9.0205620750794e-17 	1.10510474553965 	0.0118372130422702 	67.5178127262779
1.00000000001227e-06 	3.02015094383281 	-9.71445146547012e-17 	1.10509273730091 	0.00954424495373687 	106.891745219197
1.00000000001227e-06 	3.02458065419862 	-1.00613961606655e-16 	1.10506944423009 	0.00591461983595529 	207.297421624632
1.00000000001227e-06 	3.02885382577583 	-1.04083408558608e-16 	1.10504927801882 	0.00230486114880282 	699.903416648446
