4 	0.00391112967796274 	3.46944695195361e-18 	-0.106094700817346 	0.00010708985196087 	-2.89014764299496e-15
4 	0.0118766651674915 	3.46944695195361e-18 	-0.265627900894586 	5.27185968285642e-05 	2.09832287999655e-15
4 	0.020134001548576 	0 	-0.333633212387643 	-0.000289554725677033 	2.49828268652956e-16
4 	0.028693828342395 	1.04083408558608e-17 	-0.354772509836712 	-0.000819363306441257 	-6.0479353817987e-21
4 	0.0375672266585909 	1.73472347597681e-17 	-0.360984242204514 	-0.00147507960471084 	1.82528946876436e-21
4 	0.0467656835403033 	2.08166817117217e-17 	-0.362188936532253 	-0.00223486963226102 	2.63221894934163e-22
4 	0.0563011068347006 	2.08166817117217e-17 	-0.36113987350593 	-0.00308218547403814 	2.24457470856995e-22
4 	0.0661858406082648 	2.42861286636753e-17 	-0.35879677865277 	-0.00400533318237705 	1.38672264861084e-21
4 	0.0764326811267816 	2.77555756156289e-17 	-0.355570479194414 	-0.00499702581647797 	1.02127411604118e-21
4 	0.0870548934207257 	2.77555756156289e-17 	-0.35166163883833 	-0.00605208637191827 	-1.40223368715097e-22
4 	0.0980662284574838 	3.12250225675825e-17 	-0.347175410969507 	-0.00716619000760342 	-4.71338292892855e-17
4 	0.109480940942647 	3.12250225675825e-17 	-0.342167439498214 	-0.00833536756400886 	-5.04350380746635e-17
4 	0.121313807773416 	2.42861286636753e-17 	-0.336664796064231 	-0.00955577835213914 	3.88159713695642e-17
4 	0.13358014716801 	2.08166817117217e-17 	-0.330676468380883 	-0.010823585828849 	4.20833767674561e-17
4 	0.146295838495838 	2.77555756156289e-17 	-0.324199028543917 	-0.0121348908506171 	-2.04903891661501e-22
4 	0.159477342834115 	3.46944695195361e-17 	-0.317219897062088 	-0.013485702289169 	2.98892587792029e-25
4 	0.173141724277517 	3.46944695195361e-17 	-0.309719333347072 	-0.0148719334116197 	8.54926680245092e-22
4 	0.18730667202848 	3.12250225675825e-17 	-0.301671721200446 	-0.0162894178445784 	7.53806491510548e-22
4 	0.201990523296728 	3.46944695195361e-17 	-0.293046452980614 	-0.0177339418131081 	-1.76840555461235e-21
4 	0.217212287037676 	4.16333634234434e-17 	-0.283808583259456 	-0.0192012909794667 	-7.47844006676052e-23
4 	0.232991668560441 	4.16333634234434e-17 	-0.273919352217995 	-0.020687310917923 	-2.10739707039133e-22
4 	0.249349095037321 	4.85722573273506e-17 	-0.263336639416519 	-0.0221879808362028 	-1.98554468592418e-21
4 	0.266305741947753 	5.20417042793042e-17 	-0.252015384907054 	-0.0236995002274081 	-2.03919981484812e-22
4 	0.283883560490999 	5.20417042793042e-17 	-0.239907999423978 	-0.0252183887378303 	1.31805105599116e-22
4 	0.30210530600303 	4.85722573273506e-17 	-0.226964774582924 	-0.0267416015832818 	3.87088488502672e-22
4 	0.320994567414414 	5.55111512312578e-17 	-0.213134295630982 	-0.0282666618684056 	1.99418973770665e-21
4 	0.340575797787321 	6.93889390390723e-17 	-0.198363854265367 	-0.0297917774185272 	-1.59155239553137e-24
4 	0.360874345971201 	7.28583859910259e-17 	-0.182599859445071 	-0.0313158929911234 	-2.16758979589705e-21
4 	0.381916489418091 	7.97972798949331e-17 	-0.165788218610507 	-0.0328391870440192 	-4.03650531064132e-21
4 	0.403729468200046 	8.32667268468867e-17 	-0.147874487525433 	-0.0343655623803005 	8.79814302701707e-24
4 	0.426341520272734 	8.32667268468867e-17 	-0.128798132420736 	-0.0358997389210067 	7.79245572423556e-21
4 	0.449781918030829 	9.0205620750794e-17 	-0.108395316435983 	-0.0374184728291437 	-1.66424450537353e-23
4 	0.474081006202548 	9.0205620750794e-17 	-0.0863118942591445 	-0.038906305241307 	-4.61281419047234e-22
4 	0.499270241132364 	8.32667268468867e-17 	-0.0622291517512064 	-0.0403265711169548 	-4.38512745100086e-21
4 	0.525382231502763 	7.97972798949331e-17 	-0.0360866962583172 	-0.0416656643657233 	-4.21687497474508e-21
4 	0.552450780547767 	7.97972798949331e-17 	-0.00797101908551768 	-0.0429343670034974 	2.68825938170251e-22
4 	0.58051092981285 	7.63278329429795e-17 	0.0219926772319467 	-0.0441557191685252 	-2.57961624831441e-22
4 	0.609599004517911 	6.93889390390723e-17 	0.0537094495082641 	-0.0453563182093624 	-1.0101960716923e-21
4 	0.639752660582033 	6.24500451351651e-17 	0.0871474131366697 	-0.0465628259243133 	-1.8909930289889e-20
4 	0.671010933370887 	5.20417042793042e-17 	0.122349877622393 	-0.0477998581297484 	-1.2875855689124e-20
4 	0.703414288229901 	4.16333634234434e-17 	0.159439766877056 	-0.0490898188310653 	2.58210009148991e-20
4 	0.737004672868606 	3.46944695195361e-17 	0.198622433783204 	-0.0504537756549525 	1.45702121841244e-20
4 	0.771825571663977 	3.12250225675825e-17 	0.240186032263861 	-0.0519115095370136 	1.54217189501576e-20
4 	0.807922061953054 	3.46944695195361e-17 	0.284490706135729 	-0.0534796846405295 	7.97524106270379e-22
4 	0.845340872387743 	3.46944695195361e-17 	0.331930625802145 	-0.0551677726979092 	-1.87320000282009e-17
4 	0.88413044342731 	2.77555756156289e-17 	0.382850677028375 	-0.0569724885711362 	-1.61932258068809e-17
4 	0.924340990046898 	2.77555756156289e-17 	0.437410318156059 	-0.0588732268853576 	1.64000973743953e-17
4 	0.966024566743242 	2.77555756156289e-17 	0.495419801403614 	-0.0608325267453089 	1.36418011552647e-17
4 	1.00923513492173 	3.12250225675825e-17 	0.556227852762211 	-0.0628038811946923 	-3.88602708737617e-20
4 	1.05402863275206 	3.46944695195361e-17 	0.618784409702402 	-0.0647422258091284 	-6.15996887449263e-22
4 	1.10046304758287 	4.16333634234434e-17 	0.681984114701375 	-0.0666045913598571 	-3.77338460578932e-20
4 	1.14859849100923 	4.85722573273506e-17 	0.745352019016498 	-0.0682877879765615 	3.82946036226482e-20
4 	1.19849727668995 	4.85722573273506e-17 	0.810377062285637 	-0.0695798384324208 	-7.8866580280041e-20
4 	1.25022400101563 	5.29632761259169e-17 	0.878056528820942 	-0.0702818231937954 	-4.10528861702048e-20
4 	1.30384562673186 	6.03358508988183e-17 	0.9459942858477 	-0.0701696073507518 	5.43813911615041e-25
4 	1.35943156962565 	5.70290342727375e-17 	1.00950721331762 	-0.0692027140998963 	-2.72349825239407e-22
4 	1.41705378838763 	5.96311194867027e-17 	1.06205442760323 	-0.0674726867674343 	3.81004007297301e-20
4 	1.47678687776592 	6.80878964320897e-17 	1.09866141298277 	-0.0653513239350621 	-1.63754344594731e-21
4 	1.53870816513278 	6.50521303491303e-17 	1.12034856865117 	-0.0631719490926639 	2.48840479643122e-21
4 	1.60289781058851 	6.33174068731535e-17 	1.13203798803726 	-0.0609927061669311 	7.0014666799511e-20
4 	1.66943891073267 	6.67868538251071e-17 	1.13783863133092 	-0.0587585645760237 	6.40182896675693e-20
4 	1.73841760623657 	6.93889390390723e-17 	1.13995216051581 	-0.05641861196691 	1.16888395949823e-19
4 	1.8099231933566 	6.07153216591882e-17 	1.13943369433692 	-0.0539467583241983 	1.44543738598104e-22
4 	1.88404823953249 	5.8113236445223e-17 	1.13688997843429 	-0.0513653514509928 	-1.15694189519759e-20
4 	1.96088870322038 	7.02563007770607e-17 	1.13292351934516 	-0.0487119877110794 	-6.20563827487046e-20
4 	2.02024009608346 	7.63278329429795e-17 	1.12913767928191 	-0.0467427445935372 	-7.87340345377714e-21
4 	2.06000503604194 	-3.46944695195361e-18 	1.12603052884316 	-0.0453336844706591 	0
4 	2.09836474743796 	-3.46944695195361e-18 	1.1226801800934 	-0.0440384259589365 	0
4 	2.13536888877258 	-3.46944695195361e-18 	1.11907810339833 	-0.0427965208016813 	0
4 	2.17106536369585 	-6.93889390390723e-18 	1.11527951204539 	-0.0415987105782396 	0
4 	2.20550038302044 	-1.04083408558608e-17 	1.11131242065001 	-0.0404406953446986 	0
4 	2.23871852454378 	-6.93889390390723e-18 	1.10719735768578 	-0.0393209573621971 	0
4 	2.27076279075613 	-3.46944695195361e-18 	1.10295128002997 	-0.0382375825994116 	0
4 	2.30167466450941 	0 	1.09858865865846 	-0.0371893437841706 	0
4 	2.33149416271873 	1.04083408558608e-17 	1.09412187434288 	-0.0361754295922954 	0
4 	2.36025988816627 	2.25514051876985e-17 	1.0895611395233 	-0.0351950739351658 	0
4 	2.38800907947441 	2.77555756156289e-17 	1.08491286299827 	-0.0342496277088101 	0
4 	2.41477765931296 	2.77555756156289e-17 	1.08016347041048 	-0.0333366945155704 	0
4 	2.44060028090272 	2.42861286636753e-17 	1.07521288536904 	-0.0324376022225219 	0
4 	2.46551037287586 	2.42861286636753e-17 	1.06994835460714 	-0.0315347456417927 	0
4 	2.48954018255081 	2.77555756156289e-17 	1.06437342314447 	-0.0306280031205671 	0
4 	2.512720817678 	3.12250225675825e-17 	1.05858705384494 	-0.0297273597063687 	0
4 	2.53508228671037 	3.46944695195361e-17 	1.05274491499585 	-0.028845517109598 	0
4 	2.55665353765073 	3.46944695195361e-17 	1.04700534416811 	-0.0279928146334965 	0
4 	2.57746249552637 	3.46944695195361e-17 	1.04146263240241 	-0.0271751269172601 	0
4 	2.59753609853934 	3.46944695195361e-17 	1.03609098227251 	-0.0263917109359836 	0
4 	2.6169003329393 	3.46944695195361e-17 	1.03077887754771 	-0.0256368852254861 	0
4 	2.6355802666639 	3.81639164714898e-17 	1.02545670135382 	-0.0249088932873509 	0
4 	2.6536000817905 	4.16333634234434e-17 	1.02012009832563 	-0.0242081683025858 	0
4 	2.67098310584103 	3.81639164714898e-17 	1.01477081537167 	-0.0235318704569326 	0
4 	2.68775184198057 	3.12250225675825e-17 	1.00940964014037 	-0.0228780255844273 	0
4 	2.7039279981488 	2.60208521396521e-17 	1.00403579316599 	-0.0222447754890803 	0
4 	2.71953251516198 	3.12250225675825e-17 	0.998646486121136 	-0.0216302078398948 	0
4 	2.73458559382185 	3.81639164714898e-17 	0.99323656738706 	-0.0210324004854391 	0
4 	2.74910672106653 	3.81639164714898e-17 	0.987798221583362 	-0.0204494402358845 	0
4 	2.76311469519732 	3.46944695195361e-17 	0.98232070769881 	-0.0198794344061674 	0
4 	2.776627650214 	3.12250225675825e-17 	0.976790120203786 	-0.0193205248979249 	0
4 	2.78966307929018 	3.12250225675825e-17 	0.971189150596221 	-0.0187709015861897 	0
4 	2.80223785741904 	3.12250225675825e-17 	0.965496820515789 	-0.0182288124188906 	0
4 	2.81436826325886 	2.77555756156289e-17 	0.959688155087163 	-0.0176925691079965 	0
4 	2.82607000020648 	2.08166817117217e-17 	0.95373376705031 	-0.0171605483141873 	0
4 	2.83735821672613 	1.73472347597681e-17 	0.947599328714189 	-0.0166311892228372 	0
4 	2.8482475259599 	1.73472347597681e-17 	0.941244919890046 	-0.0161029894052408 	0
4 	2.85875202464506 	1.73472347597681e-17 	0.934624257116597 	-0.0155745024355979 	0
4 	2.86888531136304 	1.73472347597681e-17 	0.927683836009994 	-0.0150443413936814 	0
4 	2.87866050414343 	1.56125112837913e-17 	0.920362061250114 	-0.0145111848018192 	0
4 	2.88809025744591 	1.04083408558608e-17 	0.912588496800509 	-0.0139737865428995 	0
4 	2.89718677854204 	5.20417042793042e-18 	0.904283363856712 	-0.0134311328146314 	0
4 	2.90596184331818 	6.93889390390723e-18 	0.895356034795956 	-0.0128831136970345 	0
4 	2.91442681151997 	1.04083408558608e-17 	0.885683615481439 	-0.0123268128164282 	0
4 	2.922592641458 	1.04083408558608e-17 	0.875042608967659 	-0.0117546493584174 	0
4 	2.93046990419395 	1.04083408558608e-17 	0.863134190959063 	-0.0111564908167768 	0
4 	2.93806879722526 	1.04083408558608e-17 	0.849679637571105 	-0.0105267262028003 	0
4 	2.94539915768638 	1.04083408558608e-17 	0.834428011126016 	-0.00986401065384345 	0
4 	2.95247047508334 	1.38777878078145e-17 	0.81715894011291 	-0.00916966264691788 	0
4 	2.9592919035784 	1.21430643318376e-17 	0.797684253567463 	-0.00844711412554516 	0
4 	2.96587227384055 	6.93889390390723e-18 	0.775845073170408 	-0.0077016544208612 	0
4 	2.97222010447726 	6.93889390390723e-18 	0.751498653170489 	-0.00694011837779226 	0
4 	2.97834361306218 	6.93889390390723e-18 	0.724493241795706 	-0.0061705378254417 	0
4 	2.98425072677325 	6.93889390390723e-18 	0.694629716406802 	-0.00540178055267751 	0
4 	2.98994909265477 	6.93889390390723e-18 	0.661607419691647 	-0.00464318188382143 	0
4 	2.99544608751689 	6.93889390390723e-18 	0.62495044310637 	-0.00390422961571223 	0
4 	3.00074882748522 	6.93889390390723e-18 	0.583905612995071 	-0.00319443874386005 	0
4 	3.00586417721304 	6.93889390390723e-18 	0.53728522348408 	-0.00252349039442595 	0
4 	3.01079875876789 	6.93889390390723e-18 	0.483211860094665 	-0.00190152968891273 	0
4 	3.01555896020418 	6.93889390390723e-18 	0.418811939927657 	-0.00134160004966533 	0
4 	3.02015094383281 	6.93889390390723e-18 	0.33989696777211 	-0.000849746429822828 	0
4 	3.02458065419861 	6.93889390390723e-18 	0.244739293288299 	-0.000442231927623933 	0
4 	3.02885382577582 	6.93889390390723e-18 	0.142548315002495 	-0.000158125057693779 	0
4 	3.03297599039165 	6.93889390390723e-18 	0.0454298956373562 	-1.82928594261357e-05 	0
