3 	0.00391112967796271 	-1.90819582357449e-17 	1.12320888144339 	0.00109613578408532 	447.322148954755
3 	0.0118766651674914 	-2.42861286636753e-17 	1.12318165845678 	0.0070629209515251 	138.607337270197
3 	0.0201340015485759 	-2.77555756156289e-17 	1.1231025595808 	0.0155721823509083 	44.0756416369751
3 	0.0286938283423949 	-3.12250225675825e-17 	1.12295036365237 	0.0224579301920467 	23.6746130213249
3 	0.0375672266585909 	-3.12250225675825e-17 	1.12274443152919 	0.0277070183217673 	16.1349276462309
3 	0.0467656835403032 	-2.42861286636753e-17 	1.12250569830486 	0.0319666306594554 	12.3158583290614
3 	0.0563011068347007 	-1.56125112837913e-17 	1.12224325755648 	0.035611340035139 	10.0145695527353
3 	0.0661858406082649 	-1.73472347597681e-17 	1.12196151895507 	0.0388429532217517 	8.47730444093125
3 	0.0764326811267816 	-1.90819582357449e-17 	1.12166410643823 	0.0417796443900224 	7.37929280539662
3 	0.0870548934207257 	-1.73472347597681e-17 	1.12135424715324 	0.0444963550953271 	6.55774144041534
3 	0.0980662284574838 	-1.56125112837913e-17 	1.12103480346164 	0.0470436903246315 	5.9219878020946
3 	0.109480940942647 	-8.67361737988404e-18 	1.12070841854585 	0.0494575293631577 	5.41748737841651
3 	0.121313807773417 	-3.46944695195361e-18 	1.12037762263019 	0.0517643027743617 	5.00943361907913
3 	0.133580147168011 	-5.20417042793042e-18 	1.12004488468192 	0.0539840783714661 	4.67456217658347
3 	0.146295838495839 	-6.93889390390723e-18 	1.1197126384821 	0.0561324598488845 	4.39673296959635
3 	0.159477342834115 	0 	1.11938329621908 	0.0582218027940464 	4.16440175652198
3 	0.173141724277517 	1.38777878078145e-17 	1.11905925385249 	0.0602620176973218 	3.96910009694252
3 	0.18730667202848 	3.12250225675825e-17 	1.11874289082601 	0.0622611114228907 	3.80448305750304
3 	0.201990523296728 	4.16333634234434e-17 	1.11843656615446 	0.064225555806597 	3.66571124346023
3 	0.217212287037676 	3.81639164714898e-17 	1.11814261241989 	0.06616053699542 	3.54903734055103
3 	0.232991668560441 	3.81639164714898e-17 	1.11786332890205 	0.0680701186998687 	3.45152188463597
3 	0.249349095037321 	4.5102810375397e-17 	1.11760097488939 	0.0699573401133458 	3.370832973135
3 	0.266305741947753 	4.85722573273506e-17 	1.1173577641021 	0.0718242614127074 	3.3051017708417
3 	0.283883560490999 	4.16333634234434e-17 	1.1171358613887 	0.0736719646154151 	3.25281578073368
3 	0.30210530600303 	3.46944695195361e-17 	1.11693738357733 	0.0755005140863593 	3.21273799317071
3 	0.320994567414414 	2.77555756156289e-17 	1.11676440396731 	0.0773088790226606 	3.18384386403425
3 	0.340575797787321 	1.04083408558608e-17 	1.11661895491702 	0.079094818712279 	3.16527049284308
3 	0.360874345971201 	0 	1.11650303716222 	0.0808547252469396 	3.15627367340183
3 	0.381916489418091 	3.46944695195361e-18 	1.11641863956841 	0.0825834254024993 	3.15618982872632
3 	0.403729468200046 	1.04083408558608e-17 	1.1163677615867 	0.0842739418294363 	3.16440041036789
3 	0.426341520272733 	2.08166817117217e-17 	1.11635243448764 	0.0859172112959875 	3.18029655375609
3 	0.441285719950775 	2.60208521396521e-17 	1.11635992382594 	0.0869491555375149 	3.19387756437347
3 	0.453216730115852 	2.94902990916057e-17 	1.11638051238744 	0.0877255422739294 	3.20699520560275
3 	0.474081006202548 	3.12250225675825e-17 	1.11643603490032 	0.0890149607617481 	3.23243473927595
3 	0.499270241132364 	4.16333634234434e-17 	1.11653937626413 	0.0904382682049165 	3.2672027822089
3 	0.525382231502763 	6.24500451351651e-17 	1.11668691880818 	0.0917511810605797 	3.30655775561317
3 	0.552450780547767 	5.89805981832114e-17 	1.11688097622767 	0.0929291060901147 	3.34931408221138
3 	0.58051092981285 	4.5102810375397e-17 	1.11712382085946 	0.0939433129415826 	3.39400770295925
3 	0.609599004517911 	3.81639164714898e-17 	1.11741756628928 	0.0947608380206617 	3.4388319970742
3 	0.639752660582033 	3.81639164714898e-17 	1.11776399332295 	0.095344687241406 	3.48157783396628
3 	0.671010933370887 	4.16333634234434e-17 	1.11816431111658 	0.0956545134586705 	3.51958933126306
3 	0.703414288229901 	4.16333634234434e-17 	1.1186188633125 	0.0956480242768222 	3.54975938010745
3 	0.737004672868606 	4.5102810375397e-17 	1.11912685544338 	0.0952834797075278 	3.56861775255381
3 	0.771825571663976 	5.89805981832114e-17 	1.11968628001396 	0.0945235992105069 	3.57258800025718
3 	0.807922061953054 	6.24500451351651e-17 	1.12029418622337 	0.0933407172811903 	3.55842048719745
3 	0.845340872387743 	5.55111512312578e-17 	1.12094713362166 	0.0917222771603025 	3.5236216107808
3 	0.88413044342731 	5.55111512312578e-17 	1.12164136884529 	0.0896756114342998 	3.46661409485815
3 	0.924340990046898 	5.55111512312578e-17 	1.12237247725926 	0.0872317209352314 	3.38658754482901
3 	0.966024566743242 	5.89805981832114e-17 	1.12313482360929 	0.0844482719323619 	3.28329955241178
3 	1.00923513492173 	6.24500451351651e-17 	1.12392131004436 	0.0814112350216204 	3.15711383316917
3 	1.05402863275206 	6.24500451351651e-17 	1.12472369444068 	0.078233041348982 	3.00934602044153
3 	1.10046304758287 	6.59194920871187e-17 	1.12553335780601 	0.0750443952737035 	2.84275453848457
3 	1.14859849100923 	6.93889390390723e-17 	1.12634223695522 	0.071978324743232 	2.66187707591643
3 	1.19849727668995 	6.59194920871187e-17 	1.12714356515542 	0.0691488557793162 	2.47291822793301
3 	1.25022400101563 	6.04984812246911e-17 	1.12793190746703 	0.0666327117307718 	2.28312251837835
3 	1.30384562673186 	5.70290342727375e-17 	1.12870209680886 	0.0644621961180735 	2.10008052827269
3 	1.35943156962566 	5.46437894932694e-17 	1.12945082011697 	0.0626005794441917 	1.92968905382049
3 	1.41705378838763 	5.63785129692462e-17 	1.1301738852545 	0.0609864061842909 	1.77601274368625
3 	1.47678687776592 	6.24500451351651e-17 	1.13086836538175 	0.0595411162335796 	1.64088773559861
3 	1.53870816513278 	6.24500451351651e-17 	1.13153343937099 	0.058182021543904 	1.52362368164668
3 	1.60289781058851 	6.07153216591882e-17 	1.13216810121764 	0.0568342934075229 	1.42272613677277
3 	1.66943891073267 	5.89805981832114e-17 	1.13276969941167 	0.0554380483402175 	1.33718409044105
3 	1.73841760623657 	5.20417042793042e-17 	1.13333566085481 	0.0539456851057485 	1.26540706644384
3 	1.8099231933566 	4.85722573273506e-17 	1.13386348748985 	0.05231956626728 	1.20535666745377
3 	1.88404823953249 	4.68375338513738e-17 	1.13435232068194 	0.050532431022061 	1.15544876812851
3 	1.96088870322038 	1.73472347597681e-17 	1.13475984486823 	0.0486876685909491 	1.11657804219711
3 	2 	2.08166817117217e-17 	1.13492765286291 	0.0477927240750582 	1.10046997036538
3 	2.02024009608346 	2.42861286636753e-17 	1.1350616813716 	0.0471246755555389 	1.09128589694257
3 	2.06000503604194 	2.77555756156289e-17 	1.13527310533412 	0.0459094564532374 	1.07616794162131
3 	2.09836474743796 	2.77555756156289e-17 	1.13542178670048 	0.0448225065424954 	1.06572031693092
3 	2.13536888877257 	2.77555756156289e-17 	1.13555462429337 	0.0437514962735642 	1.05801852751557
3 	2.17106536369585 	2.77555756156289e-17 	1.13566801397807 	0.0426985216348823 	1.05289675029507
3 	2.20550038302044 	2.77555756156289e-17 	1.13576293562003 	0.0416652626724404 	1.05023078176073
3 	2.23871852454378 	2.42861286636753e-17 	1.13584112776098 	0.0406530220847366 	1.04993022325423
3 	2.27076279075613 	2.08166817117217e-17 	1.135904061623 	0.0396627639021017 	1.05193285172873
3 	2.30167466450941 	2.08166817117217e-17 	1.13595308800953 	0.0386951558845313 	1.0562007042219
3 	2.33149416271872 	1.73472347597681e-17 	1.13598948879656 	0.0377506122514784 	1.06271741858017
3 	2.36025988816627 	1.38777878078145e-17 	1.13601447316551 	0.0368293342475612 	1.07148650768561
3 	2.38800907947441 	1.38777878078145e-17 	1.13602917765404 	0.0359313473797611 	1.08253035464767
3 	2.41477765931296 	1.38777878078145e-17 	1.13603466854465 	0.035056534853863 	1.09588978892697
3 	2.44060028090273 	1.38777878078145e-17 	1.13603194403298 	0.0342046671312486 	1.1116241536407
3 	2.46551037287587 	1.38777878078145e-17 	1.13602193630006 	0.0333754277671054 	1.1298118109739
3 	2.48954018255081 	1.38777878078145e-17 	1.13600551366483 	0.0325684358268805 	1.15055106035579
3 	2.51272081767801 	1.38777878078145e-17 	1.13598348284143 	0.0317832652453692 	1.17396146612796
3 	2.53508228671038 	1.38777878078145e-17 	1.13595659130209 	0.0310194615179121 	1.20018561017197
3 	2.55665353765073 	1.38777878078145e-17 	1.13592552974029 	0.03027655611264 	1.22939130207768
3 	2.57746249552636 	1.38777878078145e-17 	1.13589093462104 	0.029554078977506 	1.26177429621751
3 	2.59753609853934 	1.38777878078145e-17 	1.1358533907994 	0.0288515694930582 	1.29756158261513
3 	2.6169003329393 	1.38777878078145e-17 	1.13581343418511 	0.028168586196021 	1.33701533770928
3 	2.6355802666639 	1.38777878078145e-17 	1.13577155442942 	0.0275047155724365 	1.38043764292912
3 	2.6536000817905 	1.38777878078145e-17 	1.13572819760979 	0.0268595801937991 	1.42817610435845
3 	2.67098310584103 	1.73472347597681e-17 	1.13568376888808 	0.026232846445771 	1.48063053668184
3 	2.68775184198056 	2.08166817117217e-17 	1.13563863511891 	0.02562423207641 	1.53826091019664
3 	2.70392799814879 	2.08166817117217e-17 	1.13559312738545 	0.0250335137683775 	1.60159680218634
3 	2.71953251516198 	2.08166817117217e-17 	1.13554754344083 	0.0244605349155749 	1.67124864477154
3 	2.73458559382185 	2.08166817117217e-17 	1.13550215003438 	0.0239052137564059 	1.7479211219991
3 	2.74910672106653 	2.08166817117217e-17 	1.13545718510182 	0.0233675519795686 	1.83242914100807
3 	2.76311469519732 	2.08166817117217e-17 	1.13541285979914 	0.0228476438686089 	1.92571688725059
3 	2.776627650214 	2.08166817117217e-17 	1.13536936035891 	0.0223456859811359 	2.02888057347857
3 	2.78966307929018 	2.08166817117217e-17 	1.13532684974754 	0.0218619872578356 	2.14319560781006
3 	2.80223785741904 	1.73472347597681e-17 	1.13528546910047 	0.0213969793124154 	2.27014903850761
3 	2.81436826325886 	1.38777878078145e-17 	1.13524533891205 	0.0209512264501162 	2.41147828244421
3 	2.82607000020648 	1.38777878078145e-17 	1.13520655995654 	0.0205254346796774 	2.56921731052211
3 	2.83735821672614 	1.38777878078145e-17 	1.13516921391885 	0.0201204585991127 	2.74575164690965
3 	2.84824752595991 	1.38777878078145e-17 	1.13513336371926 	0.0197373045264015 	2.9438837429493
3 	2.85875202464507 	1.38777878078145e-17 	1.13509905352724 	0.0193771275934995 	3.16691052190175
3 	2.86888531136304 	1.38777878078145e-17 	1.13506630847896 	0.0190412197199404 	3.4187151864843
3 	2.87866050414343 	1.38777878078145e-17 	1.135035134143 	0.0187309844504447 	3.7038758041447
3 	2.88809025744591 	1.38777878078145e-17 	1.13500551582176 	0.0184478936426188 	4.02779387320866
3 	2.89718677854204 	1.38777878078145e-17 	1.13497741783184 	0.0181934200526694 	4.39684729135484
3 	2.90596184331819 	1.38777878078145e-17 	1.13495078297091 	0.0179689391939363 	4.81857437459209
3 	2.91442681151997 	1.38777878078145e-17 	1.13492553244197 	0.0177755937127844 	5.30189962976696
3 	2.92259264145801 	1.38777878078145e-17 	1.13490156654974 	0.0176141142412378 	5.85741921121444
3 	2.93046990419395 	1.38777878078145e-17 	1.13487876648515 	0.0174845924520591 	6.49777652634557
3 	2.93806879722526 	1.73472347597681e-17 	1.13485699744744 	0.0173862047550594 	7.23817962955382
3 	2.94539915768638 	2.08166817117217e-17 	1.13483611320345 	0.0173168880076673 	8.09714712392896
3 	2.95247047508335 	2.08166817117217e-17 	1.13481596195426 	0.0172729700520941 	9.09762695959882
3 	2.9592919035784 	2.08166817117217e-17 	1.13479639310109 	0.0172487547483174 	10.2687281327918
3 	2.96587227384055 	2.08166817117217e-17 	1.13477726422684 	0.0172360485572705 	11.6484681694175
3 	2.97222010447726 	2.08166817117217e-17 	1.1347584474101 	0.0172235861189257 	13.2882291733691
3 	2.97834361306218 	2.08166817117217e-17 	1.13473983386654 	0.0171962531774456 	15.2601603043537
3 	2.98425072677325 	2.08166817117217e-17 	1.13472133529327 	0.0171338926322213 	17.6698525018113
3 	2.98994909265477 	2.08166817117217e-17 	1.13470287825675 	0.0170092607634442 	20.6789185870027
3 	2.99544608751689 	2.08166817117217e-17 	1.13468438824133 	0.0167842516617734 	24.5473041837191
3 	3.00074882748522 	2.08166817117217e-17 	1.13466578106688 	0.0164024742371364 	29.7188878022475
3 	3.00586417721304 	2.08166817117217e-17 	1.13464691721909 	0.015773894468532 	37.0084429129153
3 	3.01079875876789 	2.42861286636753e-17 	1.13462691808666 	0.014741816193272 	48.0552393934494
3 	3.01555896020418 	2.77555756156289e-17 	1.1346023676625 	0.013014875462041 	66.6029469542111
3 	3.02015094383282 	2.77555756156289e-17 	1.134569901455 	0.010116033255264 	103.088090062307
3 	3.02458065419862 	2.77555756156289e-17 	1.13453518100927 	0.00603032469200004 	200.917587486306
3 	3.02885382577583 	2.77555756156289e-17 	1.1345104649125 	0.00226844590826542 	694.404383633688
