8 	0.451351328258348 	2.42861286636753e-17 	0.0595205581416574 	0.0446581257261624 	-4.16125705791402e-17
8 	0.457856884620643 	2.08166817117217e-17 	0.156369903910617 	0.11994471397479 	3.54301077786352e-17
8 	0.464597494115106 	2.42861286636753e-17 	0.213866533916985 	0.162468787883271 	3.77548604403056e-18
8 	0.471581531993148 	2.42861286636753e-17 	0.242282170560791 	0.181869397346238 	2.18885296925523e-20
8 	0.478817663648092 	2.08166817117217e-17 	0.258336771013214 	0.191582333047805 	1.03253502048267e-21
8 	0.486314854098318 	2.25514051876985e-17 	0.26961718177405 	0.197427703451608 	-3.0144805396645e-19
8 	0.49408237774287 	1.56125112837913e-17 	0.278766390594355 	0.201463612236909 	-4.02017723647208e-18
8 	0.502129828395036 	1.04083408558608e-17 	0.286821939817102 	0.204511110081153 	3.27421968631759e-18
8 	0.510467129599323 	2.08166817117217e-17 	0.294269665424299 	0.206950619978537 	4.0214759542811e-19
8 	0.519104545237329 	2.08166817117217e-17 	0.301369658214972 	0.208981826583983 	1.6223649976704e-21
8 	0.528052690427915 	1.73472347597681e-17 	0.308275509033473 	0.210719916712337 	1.8951465729625e-18
8 	0.537322542727032 	2.08166817117217e-17 	0.315085080423249 	0.212235833754661 	-1.96731782042575e-18
8 	0.546925453632554 	1.90819582357449e-17 	0.321864576885444 	0.213575230955833 	-1.77371998191398e-18
8 	0.556873160399407 	1.47451495458029e-17 	0.328660944192008 	0.214768277190493 	3.90688530130436e-17
8 	0.567177798170198 	1.82145964977565e-17 	0.335508702392889 	0.215835091221908 	4.41047635878475e-16
8 	0.577851912426569 	2.25514051876985e-17 	0.342433911548124 	0.216788920585887 	-3.95442537164812e-16
8 	0.58890847176635 	2.51534904016637e-17 	0.349456559027718 	0.217638086315094 	3.72665793153454e-16
8 	0.600360881011604 	2.94902990916057e-17 	0.356592027246224 	0.218387217633929 	-3.9154335485907e-16
8 	0.612222994652597 	3.12250225675825e-17 	0.363851997727799 	0.219038060806062 	-1.44343127361003e-17
8 	0.624509130632625 	2.86229373536173e-17 	0.371244993054874 	0.219590023240797 	-1.15800501706528e-18
8 	0.637234084478675 	2.73218947466347e-17 	0.378776677100858 	0.220040546353444 	1.1195808979211e-18
8 	0.65041314378278 	2.77555756156289e-17 	0.386449985329469 	0.220385374772351 	-2.37987489081771e-18
8 	0.664062103038993 	2.86229373536173e-17 	0.394265122789794 	0.220618802602408 	1.98988762421573e-18
8 	0.678197278840822 	2.57226965422186e-17 	0.402219435532842 	0.220733910848986 	3.51726024252044e-16
8 	0.692835525444093 	2.52890156732244e-17 	0.41031644322861 	0.220726629867913 	-3.35554162082176e-16
8 	0.707994250700163 	2.77555756156289e-17 	0.418555215982934 	0.220586791710509 	-3.47431672322414e-18
8 	0.723691432364531 	2.42861286636753e-17 	0.426917841007551 	0.220294916269821 	-9.82746623249201e-21
8 	0.739945634786034 	2.08166817117217e-17 	0.435419947335392 	0.219866356547591 	1.44429356578839e-20
8 	0.756776025981913 	2.08166817117217e-17 	0.444181261004726 	0.219314876522289 	9.87604554721593e-19
8 	0.77420239510431 	2.08166817117217e-17 	0.453326444830858 	0.218652053797237 	-9.07993589149714e-19
8 	0.792245170304006 	2.42861286636753e-17 	0.462886646626738 	0.217884850422952 	-2.17727241445121e-20
8 	0.810925436997537 	2.42861286636753e-17 	0.472881375247589 	0.216993957278478 	-7.13485005251683e-20
8 	0.830264956544259 	2.42861286636753e-17 	0.483323471214195 	0.2159589211733 	-4.15498216970199e-20
8 	0.850286185340416 	2.08166817117217e-17 	0.494219263956077 	0.214760919914539 	-3.43113633717303e-20
8 	0.871012294337907 	1.04083408558608e-17 	0.50557061461967 	0.213381047620073 	-1.20510999186425e-20
8 	0.892467188996067 	3.46944695195361e-18 	0.517375739485064 	0.211800606267554 	7.89653071673793e-20
8 	0.914675529675727 	-3.46944695195361e-18 	0.529629296866694 	0.210001780652019 	-7.75851755399222e-19
8 	0.93766275248567 	-3.46944695195361e-18 	0.542322428584764 	0.207968082561075 	5.94736176775151e-19
8.00000000000001 	0.961455090592773 	0 	0.555442834422695 	0.205684733237277 	-7.98461438556208e-19
8.00000000000001 	0.986079596008391 	3.46944695195361e-18 	0.568974860552004 	0.203139048013246 	-1.67151427554229e-19
8.00000000000001 	1.01156416186494 	0 	0.582899616289817 	0.200320800333534 	7.03583466459903e-19
8.00000000000001 	1.03793754519838 	-6.93889390390723e-18 	0.597195117761402 	0.19722255153158 	3.43455192244596e-16
8.00000000000001 	1.06522939025402 	-6.93889390390723e-18 	0.611836439448527 	0.193839937997437 	3.95400615928192e-16
8.00000000000001 	1.09347025233532 	-1.73472347597681e-17 	0.626795849835684 	0.190171905446301 	4.39644218642888e-16
8.00000000000001 	1.12269162221744 	-2.42861286636753e-17 	0.64204290635776 	0.186220881175195 	1.62365181621614e-15
8 	1.15292595115017 	-1.38777878078145e-17 	0.657544481948411 	0.181992879101391 	-9.19671171372132e-16
8 	1.18420667647759 	-3.46944695195361e-18 	0.673264695554743 	0.177497534984892 	-1.42586379759006e-15
8.00000000000001 	1.20932909530118 	-6.07153216591882e-18 	0.685649965671898 	0.173820241180864 	-7.30978477231819e-16
8.00000000000001 	1.2257861591868 	-1.64798730217797e-17 	0.693640095860602 	0.171385023327759 	-2.19176733165635e-16
8 	1.25005321751835 	-1.38777878078145e-17 	0.705206345221292 	0.167768784953481 	2.43407940922076e-19
8 	1.28469102414858 	-1.04083408558608e-17 	0.721343084194864 	0.162570683192143 	7.51908684599331e-20
8 	1.32051868198682 	-1.38777878078145e-17 	0.737528037162764 	0.157175222570896 	-4.64483419491457e-19
8.00000000000001 	1.3575749113027 	-1.73472347597681e-17 	0.753713872323487 	0.151605769342833 	3.93024848362115e-16
8.00000000000001 	1.39589958614844 	-1.73472347597681e-17 	0.769853349283302 	0.145885589532314 	1.75376030960321e-15
8.00000000000001 	1.43553376564931 	-1.21430643318376e-17 	0.785893380377687 	0.14003711284518 	-1.82587326124102e-15
8.00000000000001 	1.4765197263157 	-1.38777878078145e-17 	0.801751917319078 	0.134085704460701 	-2.71642055807312e-16
8.00000000000001 	1.51890099544909 	-1.38777878078145e-17 	0.817276905968617 	0.128073388691826 	3.0711136754738e-19
8.00000000000001 	1.56272238572048 	-8.67361737988404e-18 	0.832233721276528 	0.122077329921023 	-2.78398586335448e-20
8.00000000000001 	1.60803003100718 	-1.38777878078145e-17 	0.846438191510826 	0.116189326229833 	-1.39931132983174e-19
8.00000000000001 	1.65487142358089 	-1.38777878078145e-17 	0.860087314675576 	0.1103982624188 	2.50181830064128e-19
8.00000000000001 	1.70329545274807 	-6.93889390390723e-18 	0.873507725255372 	0.104653637404799 	1.25068642696869e-20
8 	1.75335244505158 	-8.45677694538693e-18 	0.88674898674477 	0.098982479929332 	-2.08407888338828e-19
8 	1.80509420615116 	-4.98732999343332e-18 	0.899771922272438 	0.0933959148442913 	3.67978907418642e-19
8.00000000000001 	1.85857406450892 	-3.46944695195361e-18 	0.912530118188108 	0.087884481373548 	-1.88272274451748e-19
8.00000000000001 	1.91384691701537 	-6.93889390390723e-18 	0.924969167028474 	0.0824705407012496 	1.89502169660164e-19
8.00000000000001 	1.97096927670054 	-1.21430643318376e-17 	0.936922208472955 	0.0772081644321356 	3.75161713160752e-22
8 	2.02024009608346 	1.38777878078145e-17 	0.946652404529577 	0.0728154912994076 	-2.96481061216116e-21
8 	2.06000503604194 	2.08166817117217e-17 	0.954241524441024 	0.0693455517422387 	0
8 	2.09836474743796 	2.08166817117217e-17 	0.961111996118523 	0.0661324615740663 	0
8 	2.13536888877258 	1.38777878078145e-17 	0.967421594679474 	0.06311415151331 	0
8 	2.17106536369585 	2.08166817117217e-17 	0.973215069879797 	0.0602739929968877 	0
8 	2.20550038302044 	2.77555756156289e-17 	0.978532570708586 	0.0575954179976849 	0
8 	2.23871852454378 	2.77555756156289e-17 	0.983410130893916 	0.0550643187748289 	0
8 	2.27076279075613 	2.77555756156289e-17 	0.987880026684826 	0.0526683658524076 	0
8 	2.30167466450941 	2.77555756156289e-17 	0.99197110011655 	0.050396634604914 	0
8 	2.33149416271872 	2.77555756156289e-17 	0.995709070294518 	0.0482394183831535 	0
8 	2.36025988816626 	2.08166817117217e-17 	0.999116822290435 	0.0461880640514191 	0
8 	2.38800907947441 	1.38777878078145e-17 	1.00221467085485 	0.0442348269356135 	0
8 	2.41477765931295 	1.38777878078145e-17 	1.00502059896622 	0.0423727484764968 	0
8 	2.44060028090272 	1.38777878078145e-17 	1.00755047188394 	0.0405955529967007 	0
8 	2.46551037287586 	1.73472347597681e-17 	1.0098182278571 	0.0388975600900851 	0
8 	2.48954018255081 	2.08166817117217e-17 	1.01183604696009 	0.037273610023935 	4.09711811037365e-16
8 	2.512720817678 	1.73472347597681e-17 	1.01361449966536 	0.0357190000292413 	3.69751283926882e-15
8 	2.53508228671037 	1.38777878078145e-17 	1.01516267678141 	0.0342294297116692 	-3.7815850933326e-15
8 	2.55665353765073 	1.38777878078145e-17 	1.01648830232296 	0.032800954122824 	-4.17140466674049e-16
8 	2.57746249552636 	1.38777878078145e-17 	1.01759783076948 	0.0314299432872622 	0
8 	2.59753609853934 	1.38777878078145e-17 	1.01849653002622 	0.0301130471898464 	0
8 	2.61690033293929 	1.38777878078145e-17 	1.01918855124244 	0.0288471653994404 	0
8 	2.63558026666389 	1.73472347597681e-17 	1.01967698647117 	0.0276294206451999 	0
8 	2.65360008179049 	2.42861286636753e-17 	1.01996391497782 	0.0264571357771964 	0
8 	2.67098310584102 	2.77555756156289e-17 	1.02005043882092 	0.0253278136379712 	0
8 	2.68775184198056 	2.42861286636753e-17 	1.01993670813536 	0.0242391194501832 	0
8 	2.70392799814879 	2.08166817117217e-17 	1.01962193634179 	0.0231888653905885 	0
8 	2.71953251516198 	2.42861286636753e-17 	1.01910440527839 	0.0221749970748829 	0
8 	2.73458559382185 	2.08166817117217e-17 	1.01838145999302 	0.0211955817232933 	0
8 	2.74910672106653 	2.08166817117217e-17 	1.01744949263338 	0.0202487978148212 	0
7.99999999999999 	2.76311469519732 	2.77555756156289e-17 	1.01630391451141 	0.0193329260701582 	0
8 	2.776627650214 	2.77555756156289e-17 	1.01493911497777 	0.0184463416304294 	0
8 	2.78966307929018 	3.12250225675825e-17 	1.0133484051912 	0.0175875073217426 	0
8 	2.80223785741904 	3.81639164714898e-17 	1.01152394417319 	0.0167549679149935 	0
8 	2.81436826325886 	4.16333634234434e-17 	1.00945664364887 	0.0159473453070184 	0
8 	2.82607000020647 	3.46944695195361e-17 	1.00713604702883 	0.0151633345629215 	0
8 	2.83735821672613 	2.77555756156289e-17 	1.00455017639371 	0.0144017007723267 	-3.675371087088e-16
8 	2.8482475259599 	2.77555756156289e-17 	1.00168533938643 	0.0136612766820125 	-6.23092321386834e-15
8 	2.85875202464506 	2.77555756156289e-17 	0.998525885326678 	0.0129409610792403 	6.55207150945437e-15
8 	2.86888531136304 	2.77555756156289e-17 	0.995053896407461 	0.0122397179078582 	3.84405271763999e-16
8 	2.87866050414343 	2.77555756156289e-17 	0.991248795173973 	0.0115565761130593 	0
8 	2.88809025744591 	3.46944695195361e-17 	0.987086843138371 	0.0108906302226327 	0
8 	2.89718677854204 	4.16333634234434e-17 	0.982540496623631 	0.0102410416913083 	0
8 	2.90596184331818 	4.5102810375397e-17 	0.977577573684066 	0.00960704106088813 	0
8 	2.91442681151997 	4.5102810375397e-17 	0.972160168568526 	0.00898793102100777 	0
8 	2.922592641458 	4.5102810375397e-17 	0.966243225136407 	0.00838309051041591 	0
8 	2.93046990419394 	5.20417042793042e-17 	0.959772643888322 	0.00779198006328487 	0
8 	2.93806879722526 	5.20417042793042e-17 	0.952682742388709 	0.00721414870912188 	0
8 	2.94539915768638 	4.5102810375397e-17 	0.944892805254971 	0.00664924287303182 	0
8 	2.95247047508334 	3.81639164714898e-17 	0.936302329804719 	0.00609701791095513 	0
8 	2.9592919035784 	3.46944695195361e-17 	0.92678436629043 	0.00555735319782477 	0
8 	2.96587227384055 	3.46944695195361e-17 	0.91617601317982 	0.00503027202942321 	0
8 	2.97222010447726 	3.46944695195361e-17 	0.90426455887529 	0.00451596811300585 	0
8 	2.97834361306218 	3.46944695195361e-17 	0.890766773169947 	0.00401484124099175 	0
8 	2.98425072677325 	3.12250225675825e-17 	0.875297071952031 	0.003527546410842 	0
8 	2.98994909265477 	2.42861286636753e-17 	0.857316935466196 	0.00305506085699691 	0
8 	2.99544608751689 	2.42861286636753e-17 	0.836051368429133 	0.00259876288994413 	0
8 	3.00074882748522 	2.77555756156289e-17 	0.810344451979863 	0.0021605420752487 	0
8 	3.00586417721304 	2.77555756156289e-17 	0.778395678211424 	0.00174332482288267 	0
8 	3.01079875876789 	2.77555756156289e-17 	0.73724832058776 	0.00135264221375869 	-1.09547999370401e-14
8 	3.01555896020418 	2.42861286636753e-17 	0.68173937739666 	0.000992963583164846 	-6.60009939737345e-14
8 	3.02015094383281 	2.42861286636753e-17 	0.602407511991036 	0.000645343398753799 	9.65022391770518e-14
8 	3.02458065419861 	2.77555756156289e-17 	0.483526423136588 	0.000326709964549711 	1.45981712145907e-14
8 	3.02885382577582 	2.08166817117217e-17 	0.313332960755084 	0.000136612873160949 	0
8 	3.03297599039165 	1.21430643318376e-17 	0.108563702583107 	3.37517783659861e-05 	0
