6 	0.00391112967796271 	0 	1.17062495523905 	9.06618078362268e-05 	445.411033635904
6 	0.0118766651674914 	0 	1.17061929374759 	0.000893879111089237 	124.852948428866
6 	0.020134001548576 	-1.38777878078145e-17 	1.17060264613736 	0.00329276914691893 	32.1548275542491
6 	0.0286938283423949 	-3.12250225675825e-17 	1.17056557676386 	0.00605266803423473 	14.7906459163356
6 	0.0375672266585909 	-3.12250225675825e-17 	1.17050478638969 	0.00834878867651675 	9.28761486027378
6 	0.0467656835403032 	-3.12250225675825e-17 	1.17042720358275 	0.0102275339392728 	6.82076701791448
6 	0.0563011068347007 	-3.46944695195361e-17 	1.17033881832672 	0.0118402524564504 	5.44382118599164
6 	0.0661858406082649 	-3.12250225675825e-17 	1.17024234284338 	0.0132806612203861 	4.56813756778342
6 	0.0764326811267816 	-3.46944695195361e-17 	1.17013929189255 	0.014603669940898 	3.96348562213945
6 	0.0870548934207257 	-3.81639164714898e-17 	1.17003091594545 	0.0158435236059553 	3.52219933638693
6 	0.0980662284574838 	-3.12250225675825e-17 	1.16991830071604 	0.0170230262649499 	3.18729120771999
6 	0.109480940942647 	-3.12250225675825e-17 	1.16980239717474 	0.0181582280277564 	2.92577389725942
6 	0.121313807773417 	-3.81639164714898e-17 	1.16968407096248 	0.0192609528838446 	2.71722338700641
6 	0.133580147168011 	-4.16333634234434e-17 	1.16956413507596 	0.0203402471871358 	2.5483161726705
6 	0.146295838495839 	-4.16333634234434e-17 	1.16944336611079 	0.0214032540112232 	2.40999217816492
6 	0.159477342834115 	-4.16333634234434e-17 	1.16932251246829 	0.0224557637384275 	2.295879816964
6 	0.173141724277517 	-4.16333634234434e-17 	1.16920229829358 	0.0235025722098141 	2.20137290682289
6 	0.18730667202848 	-4.5102810375397e-17 	1.16908342419869 	0.0245477188524571 	2.12306464519841
6 	0.201990523296728 	-4.5102810375397e-17 	1.16896656550278 	0.0255946464795243 	2.05838700765934
6 	0.217212287037676 	-5.20417042793042e-17 	1.16885236897215 	0.0266463075328263 	2.00537331042265
6 	0.232991668560441 	-5.89805981832114e-17 	1.16874144808758 	0.0277052318325039 	1.96249727273625
6 	0.249349095037321 	-5.20417042793042e-17 	1.16863437716409 	0.0287735650982184 	1.92856104561032
6 	0.266305741947753 	-5.20417042793042e-17 	1.16853168451077 	0.0298530838944156 	1.90261539203257
6 	0.283883560490999 	-4.85722573273506e-17 	1.16843384472497 	0.0309451903204465 	1.88390142781999
6 	0.30210530600303 	-4.85722573273506e-17 	1.16834127017017 	0.0320508882117462 	1.87180706079008
6 	0.320994567414414 	-4.85722573273506e-17 	1.16825430163856 	0.0331707415588896 	1.86583356149093
6 	0.340575797787321 	-4.16333634234434e-17 	1.16817319814213 	0.0343048151313095 	1.86556914649002
6 	0.360874345971201 	-4.16333634234434e-17 	1.16809812571847 	0.0354525968328062 	1.8706673881421
6 	0.381916489418091 	-4.85722573273506e-17 	1.16802914511106 	0.0366129010893563 	1.88082887817267
6 	0.403729468200046 	-5.20417042793042e-17 	1.16796619802798 	0.0377837525883641 	1.89578498453493
6 	0.426341520272733 	-4.85722573273506e-17 	1.16790909066737 	0.0389622499984237 	1.91528282587828
6 	0.441285719951471 	-4.16333634234434e-17 	1.16787491374698 	0.0397232424766524 	1.92985886634273
6 	0.453216730116548 	-3.81639164714898e-17 	1.16785040319735 	0.0403146862544932 	1.94277393067204
6 	0.474081006202548 	-4.5102810375397e-17 	1.16781077566813 	0.0413251408887138 	1.96681656496697
6 	0.499270241132363 	-4.5102810375397e-17 	1.16776842769884 	0.0424978664622478 	1.99831554647499
6 	0.525382231502763 	-2.77555756156289e-17 	1.16772948288405 	0.0436543650084199 	2.03322260315745
6 	0.552450780547767 	-1.04083408558608e-17 	1.16769184042729 	0.0447845884421057 	2.07114731177016
6 	0.58051092981285 	-3.46944695195361e-18 	1.16765311167333 	0.0458764809173083 	2.11162546779397
6 	0.609599004517911 	6.93889390390723e-18 	1.16762447253291 	0.0469166623304 	2.15414059265012
6 	0.639752660582033 	1.38777878078145e-17 	1.16763887914284 	0.0478920738467191 	2.19813718531796
6 	0.671010933370887 	1.04083408558608e-17 	1.16769641173471 	0.0487856699834087 	2.24260499795319
6 	0.703414288229901 	1.38777878078145e-17 	1.16774196427518 	0.0495623577356148 	2.28514610051103
6 	0.737004672868607 	2.08166817117217e-17 	1.16773533436272 	0.0501649375500933 	2.32188004023237
6 	0.771825571663977 	2.08166817117217e-17 	1.16767050053452 	0.0505328356060431 	2.34864150283422
6 	0.807922061953054 	2.25514051876985e-17 	1.16755398647252 	0.0506174841477653 	2.36202564806878
6 	0.845340872387743 	2.77555756156289e-17 	1.16739061610303 	0.0503863119032908 	2.35972696410426
6 	0.884130443427309 	2.94902990916057e-17 	1.1671792533136 	0.0498209205271557 	2.34044657462097
6 	0.924340990046898 	3.12250225675825e-17 	1.16691319586531 	0.0489156427052306 	2.30373426417977
6 	0.966024566743242 	3.46944695195361e-17 	1.16658235372443 	0.0476789431959067 	2.24990597470821
6 	1.00923513492173 	3.20923843055709e-17 	1.16617554968759 	0.0461365274411321 	2.1800185655961
6 	1.05402863275205 	3.03576608295941e-17 	1.16568214477725 	0.0443334266523587 	2.09585436833798
6 	1.10046304758287 	2.90566182226115e-17 	1.16509293470498 	0.0423325598259818 	1.99986720290902
6 	1.14859849100923 	2.47198095326695e-17 	1.16440065422053 	0.0402087736641799 	1.89504322757241
6 	1.19849727668994 	1.94072188874905e-17 	1.16360054743156 	0.0380399273638378 	1.78476163779876
6 	1.25022400101563 	1.85398571495021e-17 	1.16268990279905 	0.0359113149844654 	1.67497049401136
6 	1.30384562673186 	2.08166817117217e-17 	1.16166576426186 	0.0338889085216674 	1.56973825646291
6 	1.35943156962566 	2.08166817117217e-17 	1.16053807378931 	0.0319914805153756 	1.46905168473215
6 	1.41705378838763 	2.42861286636753e-17 	1.15931326738463 	0.0302246503360919 	1.3733829946997
6 	1.47678687776592 	2.42861286636753e-17 	1.15799868928574 	0.0285822473633055 	1.2833002179819
6 	1.53870816513278 	2.08166817117217e-17 	1.15660219740588 	0.0270445120092202 	1.19820472055925
6 	1.60289781058851 	2.08166817117217e-17 	1.15513218552853 	0.025577566269713 	1.11560660484186
6 	1.66943891073267 	2.42861286636753e-17 	1.15359851735826 	0.0241562270278603 	1.03529501014908
6 	1.73841760623657 	3.12250225675825e-17 	1.15201265717872 	0.0227721625544816 	0.960563918314133
6 	1.8099231933566 	2.77555756156289e-17 	1.15039404130934 	0.0214185656644053 	0.894284503460877
6 	1.88404823953249 	1.73472347597681e-17 	1.14878019249455 	0.0200774351268155 	0.836712679244503
6 	1.96088870322038 	1.38777878078145e-17 	1.14726672681072 	0.0188047836345649 	0.789359824877253
6 	2.02024009608346 	1.38777878078145e-17 	1.14607633352657 	0.0177935562350694 	0.756514212756533
6 	2.06000503604194 	0 	1.1451950490223 	0.0170462941267222 	0.735261371592938
6 	2.09836474743796 	0 	1.14444584181121 	0.0164019645156953 	0.719085698112249
6 	2.13536888877257 	0 	1.14373866817746 	0.0157870119409804 	0.705530578907724
6 	2.17106536369584 	-3.46944695195361e-18 	1.14307068737453 	0.0152000855856528 	0.694431056834687
6 	2.20550038302044 	0 	1.14244058227859 	0.0146399566981929 	0.68566235763628
6 	2.23871852454378 	6.93889390390723e-18 	1.14184665458335 	0.0141054978431637 	0.679133632513017
6 	2.27076279075613 	1.04083408558608e-17 	1.14128718586461 	0.0135956661805549 	0.674783308074437
6 	2.3016746645094 	1.04083408558608e-17 	1.14076049437108 	0.013109492014327 	0.67257587974778
6 	2.33149416271872 	6.93889390390723e-18 	1.14026493773329 	0.0126460718044334 	0.67249988626881
6 	2.36025988816627 	6.93889390390723e-18 	1.13979892106013 	0.0122045649159673 	0.674566854353849
6 	2.38800907947441 	6.93889390390723e-18 	1.13936090451764 	0.011784193256473 	0.678811050784458
6 	2.41477765931295 	6.93889390390723e-18 	1.13894940819428 	0.0113842429917347 	0.685289927481708
6 	2.44060028090272 	3.46944695195361e-18 	1.13856301496352 	0.0110040676570431 	0.694085188057255
6 	2.46551037287586 	0 	1.13820037182928 	0.0106430921289891 	0.705304439818007
6 	2.48954018255081 	0 	1.13786019006984 	0.0103008170566382 	0.719083423368991
6 	2.512720817678 	0 	1.13754124445121 	0.00997682345447516 	0.735588833504834
6 	2.53508228671037 	-3.46944695195361e-18 	1.13724237173844 	0.00967077722703532 	0.755021760534919
6 	2.55665353765073 	-1.04083408558608e-17 	1.13696246869021 	0.00938243342614444 	0.777621790585814
6 	2.57746249552636 	-1.38777878078145e-17 	1.13670048968474 	0.00911164003782035 	0.80367180614331
6 	2.59753609853934 	-1.38777878078145e-17 	1.13645544409307 	0.00885834105948568 	0.833503522772942
6 	2.61690033293929 	-1.38777878078145e-17 	1.13622639348989 	0.00862257856179236 	0.867503782483732
6 	2.63558026666389 	-1.38777878078145e-17 	1.13601244877112 	0.00840449333637936 	0.906121595814503
6 	2.65360008179049 	-1.38777878078145e-17 	1.13581276723217 	0.00820432361636234 	0.949875880283684
6 	2.67098310584102 	-1.38777878078145e-17 	1.13562654965035 	0.00802240122875196 	0.999363779385916
6 	2.68775184198056 	-1.73472347597681e-17 	1.13545303740903 	0.00785914441107937 	1.05526936202889
6 	2.70392799814879 	-2.08166817117217e-17 	1.13529150969957 	0.0077150464192539 	1.11837239804103
6 	2.71953251516198 	-2.08166817117217e-17 	1.13514128083849 	0.00759065899955495 	1.18955678678124
6 	2.73458559382185 	-2.08166817117217e-17 	1.135001697741 	0.00748656983225398 	1.26981809590358
6 	2.74910672106653 	-2.08166817117217e-17 	1.13487213759587 	0.00740337322017002 	1.36026956876063
6 	2.76311469519732 	-2.08166817117217e-17 	1.134752005789 	0.00734163363266311 	1.46214591596344
6 	2.776627650214 	-1.73472347597681e-17 	1.13464073412093 	0.00730184225040749 	1.57680426417851
6 	2.78966307929018 	-1.38777878078145e-17 	1.134537779356 	0.00728436738626721 	1.70572184462289
6 	2.80223785741904 	-1.73472347597681e-17 	1.13444262212579 	0.00728940053706369 	1.85049041360877
6 	2.81436826325886 	-1.38777878078145e-17 	1.13435476618676 	0.00731690075284062 	2.01280804092497
6 	2.82607000020647 	-6.93889390390723e-18 	1.13427373800847 	0.00736654085001245 	2.19446978191656
6 	2.83735821672613 	-6.93889390390723e-18 	1.13419908665395 	0.00743765957182448 	2.39735982879329
6 	2.8482475259599 	-6.93889390390723e-18 	1.13413038385038 	0.00752922395317229 	2.62344893949292
6 	2.85875202464506 	0 	1.13406722389175 	0.00763980576997803 	2.87480216998925
6 	2.86888531136304 	6.93889390390723e-18 	1.13400922360935 	0.00776757502952936 	3.15360310422161
6 	2.87866050414343 	1.04083408558608e-17 	1.13395602696173 	0.00791031207496791 	3.46220186496016
6 	2.88809025744591 	1.38777878078145e-17 	1.13390731230553 	0.00806543820868777 	3.80319529911301
6 	2.89718677854204 	1.38777878078145e-17 	1.13386270860157 	0.00823006284732327 	4.17955008287259
6 	2.90596184331818 	1.38777878078145e-17 	1.13382173802615 	0.00840103673732882 	4.59542660033862
6 	2.91442681151997 	1.04083408558608e-17 	1.13378406417148 	0.00857496715718504 	5.05702502757191
6 	2.922592641458 	6.93889390390723e-18 	1.13374965422286 	0.00874742114606963 	5.57073130460375
6 	2.93046990419394 	6.93889390390723e-18 	1.13371851195035 	0.00891190570320967 	6.14058703720221
6 	2.93806879722526 	6.93889390390723e-18 	1.13369046923646 	0.00906061244819235 	6.76935598239318
6 	2.94539915768638 	3.46944695195361e-18 	1.13366526793594 	0.00918600928831349 	7.4617099905418
6 	2.95247047508334 	0 	1.13364267331463 	0.00928159745313044 	8.22693912289344
6 	2.9592919035784 	0 	1.13362250801442 	0.00934191510364754 	9.08120853046621
6 	2.96587227384055 	0 	1.13360464550533 	0.00936211589220597 	10.0500488608117
6 	2.97222010447726 	0 	1.1335889964085 	0.00933731521571099 	11.1719837017833
6 	2.97834361306218 	0 	1.13357550660054 	0.00926171531525505 	12.5045172681887
6 	2.98425072677325 	3.46944695195361e-18 	1.13356418552187 	0.00912734572294715 	14.1344557469328
6 	2.98994909265477 	6.93889390390723e-18 	1.13355508147909 	0.00892205451307999 	16.1963390234823
6 	2.99544608751689 	6.93889390390723e-18 	1.13354814044783 	0.00862613233697552 	18.906226805099
6 	3.00074882748522 	6.93889390390723e-18 	1.13354318376652 	0.0082064455177073 	22.6267465671926
6 	3.00586417721304 	3.46944695195361e-18 	1.13354004699763 	0.00760645763712599 	28.0028921282462
6 	3.01079875876789 	0 	1.13353855577421 	0.00673127912104191 	36.2810962762396
6 	3.01555896020418 	0 	1.13353836060626 	0.00543166830986441 	50.2295140932537
6 	3.02015094383281 	0 	1.13353888245037 	0.00362222550342347 	78.0073547879401
6 	3.02458065419861 	0 	1.13353954307984 	0.00171646422172096 	159.666478658567
6 	3.02885382577582 	0 	1.13354009782818 	0.000477723716147551 	652.406072522282
6 	3.03297599039165 	0 	1.13354046566554 	5.68613241068487e-05 	1462.77586585347
