2 	0.0118766634903468 	4.16333634234434e-17 	1.05111832015661 	0.00328875310312221 	148.209578253921
2 	0.0201339998195326 	4.33680868994202e-17 	1.05111487774759 	0.00839748846525437 	45.1510534271771
2 	0.0286938265600376 	5.20417042793042e-17 	1.05110814354016 	0.0131105123522673 	23.2070734658935
2 	0.0375672248214896 	5.55111512312578e-17 	1.05109395121444 	0.0168637844098904 	15.6417512358946
2 	0.0467656816470147 	5.55111512312578e-17 	1.05106577004871 	0.0199495644913929 	11.9273290686482
2 	0.0563011048837711 	6.07153216591882e-17 	1.05102233441365 	0.0225995520971327 	9.71141323045546
2 	0.0661858385982333 	6.59194920871187e-17 	1.05096443749511 	0.0249473980270862 	8.23346370508732
2 	0.0764326790561829 	6.07153216591882e-17 	1.05089298449079 	0.0270737520087742 	7.17512550634992
2 	0.0870548912880936 	5.3776427755281e-17 	1.05080882942341 	0.0290307928123583 	6.37932003429157
2 	0.0980662262613554 	5.55111512312578e-17 	1.05071285189264 	0.0308543165651886 	5.75939243446364
2 	0.109480938681567 	5.3776427755281e-17 	1.0506059658448 	0.0325700655208006 	5.26351723504439
2 	0.121313805445942 	4.5102810375397e-17 	1.05048912308518 	0.0341972780833698 	4.85874564949184
2 	0.133580144772717 	4.77048955893622e-17 	1.05036332562149 	0.0357508047596681 	4.5231054785473
2 	0.146295836031327 	5.3776427755281e-17 	1.05022963850389 	0.0372424365697994 	4.24137454328028
2 	0.159477340299017 	5.3776427755281e-17 	1.05008920073672 	0.0386817774867209 	4.00267581309542
2 	0.173141721670501 	4.9439619065339e-17 	1.04994323495745 	0.0400768411647221 	3.79903858164699
2 	0.187306669348262 	4.0766001685455e-17 	1.04979305662188 	0.0414344750886313 	3.62450107950437
2 	0.20199052054208 	3.72965547335014e-17 	1.04964008332643 	0.0427606739079102 	3.47453101653729
2 	0.217212284207436 	4.16333634234434e-17 	1.04948584506001 	0.0440608205411925 	3.3456404376026
2 	0.232991665653523 	5.160802341031e-17 	1.04933199656032 	0.0453398801694016 	3.23512358835395
2 	0.249349092052728 	5.39932681897781e-17 	1.04918033196443 	0.0466025641130094 	3.14087518620515
2 	0.266305738884589 	5.908901840046e-17 	1.04903280340999 	0.0478534755119741 	3.06126287821752
2 	0.283883557348484 	6.19079440489223e-17 	1.04889375286371 	0.0490967551780959 	2.99508626371267
2 	0.302105302780516 	5.89805981832114e-17 	1.0487717369763 	0.0503360327800804 	2.94153938275033
2 	0.320994564111402 	5.55111512312578e-17 	1.04866124102769 	0.0515783728538516 	2.89978260438936
2 	0.340575794403482 	5.55111512312578e-17 	1.04856534533518 	0.0528293400287378 	2.86942022184597
2 	0.360874342506392 	5.55111512312578e-17 	1.04848751118705 	0.0540950941379329 	2.85028810786604
2 	0.38191648587238 	4.16333634234434e-17 	1.04843168199681 	0.055382546969917 	2.84244763314358
2 	0.403729464573739 	3.81639164714898e-17 	1.04840242336348 	0.0566995216746735 	2.84618742471076
2 	0.426341516566396 	3.81639164714898e-17 	1.04840508798946 	0.058054894727431 	2.86203056058722
2 	0.449781914245319 	3.81639164714898e-17 	1.04844604055645 	0.0594587076995679 	2.89074375169633
2 	0.474081002339048 	3.98986399474666e-17 	1.04853300526689 	0.0609221951055816 	2.93334335076909
2 	0.499270237192413 	3.98986399474666e-17 	1.04867524676381 	0.0624576626119537 	2.99108990555548
2 	0.525382227488298 	4.16333634234434e-17 	1.04888350028856 	0.0640782425066694 	3.06546531172704
2 	0.552450776461161 	3.29597460435593e-17 	1.0491702684359 	0.0657968760165955 	3.15806799407903
2 	0.580510925656956 	1.73472347597681e-17 	1.04955020529009 	0.0676246535477814 	3.2703991444617
2 	0.609599000296116 	8.67361737988404e-18 	1.0500400482896 	0.0695677463921487 	3.40339678387116
2 	0.639752656298307 	1.56125112837913e-17 	1.05065760222184 	0.0716217732384155 	3.55640635693054
2 	0.671010929029842 	1.82145964977565e-17 	1.05141907267771 	0.0737627160464977 	3.72538060318717
2 	0.703414283836854 	1.17093834628434e-17 	1.0523357322199 	0.0759371827149794 	3.90149457683563
2 	0.737004668429646 	7.37257477290143e-18 	1.05341327093658 	0.0780589854218693 	4.07253797991337
2 	0.761419519668137 	1.73472347597681e-18 	1.05426591385515 	0.0794742139627796 	4.18457110500784
2 	0.779162313841247 	-3.46944695195361e-18 	1.05492589109491 	0.0803977959875521 	4.25604383831506
2 	0.807992742715647 	-6.93889390390723e-18 	1.05605382381504 	0.0816904669997892 	4.35398610013057
2 	0.845475280399478 	-1.38777878078145e-17 	1.05761596069434 	0.0829394671015428 	4.44462962618729
2 	0.884326557652536 	-1.38777878078145e-17 	1.05932996716359 	0.0836327726015963 	4.48779225944163
2 	0.924596372923088 	-6.93889390390723e-18 	1.06117473350997 	0.0836794965327989 	4.47211365194572
2 	0.966336321272196 	-8.67361737988404e-18 	1.06311760293711 	0.083067286917629 	4.38736275349492
2 	1.00959985787075 	-1.04083408558608e-17 	1.06511572457649 	0.0818960823001887 	4.2280610354203
2 	1.05444236361788 	-8.67361737988404e-18 	1.06712113463074 	0.0803796725181556 	3.99763863650027
2 	1.10092121293912 	-6.93889390390723e-18 	1.06908974711507 	0.078794391664204 	3.7105828923856
2 	1.14909584382294 	-3.46944695195361e-18 	1.07099050205462 	0.0773882295829763 	3.39036601495656
2 	1.19902783015393 	4.44522890719057e-18 	1.07280837621404 	0.0763005295200318 	3.06276307414223
2 	1.25078095640108 	1.13841228110978e-17 	1.07453787571787 	0.0755414992973605 	2.7492993798429
2 	1.30442129471847 	1.73472347597681e-17 	1.07617760556386 	0.0750240171601921 	2.4655465775173
2 	1.36001728451516 	1.38777878078145e-17 	1.07775485762096 	0.0746004195008908 	2.21924618966272
2 	1.41763981454947 	1.04083408558608e-17 	1.07928416968903 	0.0741442237887408 	2.0129112226607
2 	1.47736230760124 	1.38777878078145e-17 	1.08077916564231 	0.0735548984619864 	1.84356686040239
2 	1.53926080777324 	1.30104260698261e-17 	1.08224910433166 	0.0727603806463388 	1.70510468336577
2 	1.60341407047001 	1.04083408558608e-17 	1.08369860154183 	0.0717115013486994 	1.5906961669143
2 	1.66893489902563 	7.80625564189563e-18 	1.0851068446549 	0.0703992453039608 	1.49637560987668
2 	1.70277529794134 	6.93889390390723e-18 	1.08581620245049 	0.0696584082847306 	1.45271720806524
2 	1.73884798288128 	6.93889390390723e-18 	1.08653160403753 	0.0687560208930463 	1.41412794200364
2 	1.81031024575141 	0 	1.08790825061782 	0.0668371338159869 	1.34523929770687
2 	1.88432958821742 	-6.93889390390723e-18 	1.08924940531685 	0.0646098763754497 	1.28708357278594
2 	1.9609947218388 	0 	1.09049911468748 	0.0621499200808051 	1.23954332349317
2 	2.02024009608345 	0 	1.09148497230717 	0.0600415319050508 	1.20953864393943
2 	2.06000503604194 	6.93889390390723e-18 	1.09208144034349 	0.0585228383795131 	1.19211142562042
2 	2.09836474743796 	1.38777878078145e-17 	1.09262874751313 	0.0570661500797259 	1.17853835641621
2 	2.13536888877257 	6.93889390390723e-18 	1.09313912254798 	0.0556268331284483 	1.16788870783764
2 	2.17106536369585 	0 	1.09360731928332 	0.0542095288724707 	1.15997463183168
2 	2.20550038302044 	6.93889390390723e-18 	1.09403666528621 	0.0528178231418576 	1.15465315089131
2 	2.23871852454378 	1.38777878078145e-17 	1.09443007597501 	0.0514544246756295 	1.15181798778849
2 	2.27076279075613 	6.93889390390723e-18 	1.09478994729946 	0.0501213127034234 	1.15139342014135
2 	2.30167466450941 	6.93889390390723e-18 	1.09511856324778 	0.0488198642924665 	1.15332979702547
2 	2.33149416271872 	6.93889390390723e-18 	1.09541811105269 	0.0475509631884262 	1.157600315981
2 	2.36025988816627 	0 	1.09569066639149 	0.0463150921149005 	1.16419877189499
2 	2.38800907947441 	6.93889390390723e-18 	1.09593819587931 	0.0451124106624258 	1.17313807345143
2 	2.41477765931296 	1.38777878078145e-17 	1.09616256085505 	0.0439428207182023 	1.1844493807061
2 	2.44060028090272 	1.38777878078145e-17 	1.09636552024191 	0.0428060211946627 	1.19818176118499
2 	2.46551037287586 	1.38777878078145e-17 	1.0965487331987 	0.0417015536313162 	1.2144022960282
2 	2.48954018255081 	2.08166817117217e-17 	1.09671376192294 	0.040628840061567 	1.23319659465937
2 	2.51272081767801 	2.08166817117217e-17 	1.09686207447192 	0.0395872143643322 	1.25466969854111
2 	2.53508228671038 	1.38777878078145e-17 	1.09699504777149 	0.0385759481601029 	1.27894737340391
2 	2.55665353765073 	1.38777878078145e-17 	1.09711397065944 	0.0375942721688116 	1.30617780638303
2 	2.57746249552636 	1.38777878078145e-17 	1.09722004712742 	0.0366413938189706 	1.33653374079276
2 	2.59753609853934 	2.08166817117217e-17 	1.09731439957667 	0.0357165117881462 	1.37021509794907
2 	2.6169003329393 	2.77555756156289e-17 	1.0973980722505 	0.0348188280586622 	1.40745215335209
2 	2.63558026666389 	2.77555756156289e-17 	1.09747203464016 	0.0339475579930287 	1.44850935479134
2 	2.65360008179049 	2.77555756156289e-17 	1.09753718503387 	0.0331019388649014 	1.49368989345969
2 	2.67098310584102 	3.46944695195361e-17 	1.09759435399247 	0.0322812372270883 	1.54334116736854
2 	2.68775184198056 	4.16333634234434e-17 	1.09764430793146 	0.0314847554517812 	1.59786131054439
2 	2.70392799814879 	4.16333634234434e-17 	1.09768775258366 	0.0307118377439432 	1.657707003689
2 	2.71953251516198 	4.16333634234434e-17 	1.09772533653185 	0.0299618758998532 	1.72340283426233
2 	2.73458559382185 	3.46944695195361e-17 	1.09775765458024 	0.0292343150637734 	1.79555253944716
2 	2.74910672106653 	2.77555756156289e-17 	1.09778525116135 	0.0285286597192113 	1.87485254760205
2 	2.76311469519732 	2.77555756156289e-17 	1.09780862354503 	0.0278444801420058 	1.96210833764953
2 	2.776627650214 	2.08166817117217e-17 	1.09782822504937 	0.0271814195319094 	2.05825426715163
2 	2.78966307929018 	1.38777878078145e-17 	1.09784446802199 	0.0265392020314078 	2.16437768682835
2 	2.80223785741904 	1.38777878078145e-17 	1.09785772678949 	0.0259176418241153 	2.28174837172704
2 	2.81436826325886 	1.38777878078145e-17 	1.09786834034667 	0.0253166534814134 	2.41185457073114
2 	2.82607000020647 	1.38777878078145e-17 	1.09787661497904 	0.0247362636785395 	2.55644732309798
2 	2.83735821672613 	1.38777878078145e-17 	1.09788282658987 	0.0241766243246266 	2.71759513587437
2 	2.8482475259599 	1.38777878078145e-17 	1.09788722292089 	0.0236380270174296 	2.89775168753814
2 	2.85875202464506 	1.38777878078145e-17 	1.09789002543243 	0.0231209185230542 	3.09983995980662
2 	2.86888531136304 	1.38777878078145e-17 	1.09789143102978 	0.0226259166443412 	3.32735715145341
2 	2.87866050414343 	1.38777878078145e-17 	1.09789161339261 	0.022153825332636 	3.58450596664325
2 	2.88809025744591 	1.04083408558608e-17 	1.09789072409021 	0.0217056471301895 	3.87635949591583
2 	2.89718677854204 	6.93889390390723e-18 	1.09788889325049 	0.0212825899181523 	4.20906907528525
2 	2.90596184331818 	1.04083408558608e-17 	1.09788622995994 	0.0208860633562703 	4.59012746270905
2 	2.91442681151997 	1.73472347597681e-17 	1.09788282222194 	0.0205176582133899 	5.02870383108154
2 	2.922592641458 	1.73472347597681e-17 	1.09787873667229 	0.0201790988589874 	5.53607318304004
2 	2.93046990419394 	1.73472347597681e-17 	1.09787401802188 	0.0198721554326966 	6.12617220597482
2 	2.93806879722526 	2.08166817117217e-17 	1.09786868853255 	0.0195984976013956 	6.8163288336648
2 	2.94539915768638 	2.08166817117217e-17 	1.09786274771443 	0.0193594664516899 	7.62823861161797
2 	2.95247047508334 	2.42861286636753e-17 	1.09785617276108 	0.0191557350689658 	8.58930628999041
2 	2.9592919035784 	2.42861286636753e-17 	1.09784892005751 	0.0189868216077479 	9.73455269372809
2 	2.96587227384055 	2.08166817117217e-17 	1.09784092834368 	0.0188504098934493 	11.1094367869183
2 	2.97222010447726 	1.73472347597681e-17 	1.09783212352524 	0.0187414175259399 	12.7742230894724
2 	2.97834361306218 	1.38777878078145e-17 	1.0978224251349 	0.0186507186763374 	14.8110608146028
2 	2.98425072677325 	1.38777878078145e-17 	1.09781175321752 	0.0185633518235594 	17.336001799672
2 	2.98994909265477 	1.04083408558608e-17 	1.09780003182725 	0.0184558624735057 	20.5203825325413
2 	2.99544608751689 	3.46944695195361e-18 	1.09778717971199 	0.0182920144002498 	24.630821530484
2 	3.00074882748522 	6.93889390390723e-18 	1.09777309332297 	0.0180151271225243 	30.1086294645171
2 	3.00586417721304 	1.04083408558608e-17 	1.09775768013168 	0.0175328880148098 	37.7409052634363
2 	3.01079875876789 	6.93889390390723e-18 	1.09774062288083 	0.0166845989965055 	49.0615449570905
2 	3.01555896020418 	1.04083408558608e-17 	1.0977191184413 	0.015167087406336 	67.4223131869177
2 	3.02015094383281 	1.04083408558608e-17 	1.09768525788339 	0.0123935960148363 	101.452513377089
2 	3.02458065419861 	1.04083408558608e-17 	1.09764123866511 	0.00763778645794301 	181.218821835553
2 	3.02885382577582 	2.08166817117217e-17 	1.09760905024679 	0.0023192560772916 	494.827877894119
2 	3.03297599039165 	2.60208521396521e-17 	1.0975966723354 	0.000251105615508406 	1722.27840273433
