8 	0.451351328258348 	2.42861286636753e-17 	0.0602661974051371 	0.0451950917706969 	-4.1585543363851e-17
8 	0.457856884620643 	2.08166817117217e-17 	0.158261063093326 	0.121392838792977 	3.55313814544796e-17
8 	0.464597494115106 	2.42861286636753e-17 	0.216617383558706 	0.164555535104616 	3.78388375695343e-18
8 	0.471581531993148 	2.42861286636753e-17 	0.245528368887062 	0.184294892360967 	2.21065641734349e-20
8 	0.478817663648092 	2.08166817117217e-17 	0.261866301992706 	0.19418010221892 	1.04292036257099e-21
8 	0.486314854098318 	2.25514051876985e-17 	0.273339218904758 	0.200124355186944 	-3.04325037759526e-19
8 	0.49408237774287 	1.56125112837913e-17 	0.282638796677958 	0.204223330963933 	-4.05858308585305e-18
8 	0.502129828395036 	1.04083408558608e-17 	0.290821120942478 	0.207312898591839 	3.30481123533988e-18
8 	0.510467129599323 	2.08166817117217e-17 	0.298380049900277 	0.209779993047639 	4.05845270909363e-19
8 	0.519104545237329 	2.08166817117217e-17 	0.305579598164095 	0.21182750741465 	1.64969893878109e-21
8 	0.528052690427915 	1.73472347597681e-17 	0.312575455138282 	0.213572381362682 	1.91316221027926e-18
8 	0.537322542727032 	2.08166817117217e-17 	0.319466678195346 	0.215086601060917 	-1.98659866077044e-18
8 	0.546925453632554 	1.90819582357449e-17 	0.326320179233 	0.216416485502809 	-1.79145275896091e-18
8 	0.556873160399407 	1.47451495458029e-17 	0.333183328054934 	0.21759265610533 	3.94943336947736e-17
8 	0.567177798170198 	1.82145964977565e-17 	0.340090892219308 	0.218635557787459 	4.45840874418492e-16
8 	0.577851912426569 	2.25514051876985e-17 	0.347069061669273 	0.219558686589792 	-3.99966680555053e-16
8 	0.58890847176635 	2.51534904016637e-17 	0.354137869753907 	0.220370563168308 	3.77129410804113e-16
8 	0.600360881011604 	2.94902990916057e-17 	0.36131268083531 	0.221075985404845 	-3.96496565442289e-16
8 	0.612222994652597 	3.12250225675825e-17 	0.368605106645304 	0.221676848885658 	-1.46154377339935e-17
8 	0.624509130632625 	2.86229373536173e-17 	0.376023557373673 	0.222172697741938 	-1.17425314081983e-18
8 	0.637234084478675 	2.73218947466347e-17 	0.383573550673499 	0.222561102408257 	1.13605421845779e-18
8 	0.65041314378278 	2.77555756156289e-17 	0.391257847605465 	0.222837949747763 	-2.41687199013248e-18
8 	0.664062103038993 	2.86229373536173e-17 	0.399076425033229 	0.222997763898614 	2.02435700464773e-18
8 	0.678197278840822 	2.57226965422186e-17 	0.407026412490584 	0.223033840531986 	3.57808659906573e-16
8 	0.692835525444093 	2.52890156732244e-17 	0.415111820775022 	0.222941163367209 	-3.41688279015842e-16
8 	0.707994250700163 	2.77555756156289e-17 	0.423333034329885 	0.222708557483106 	-3.53807747725237e-18
8 	0.723691432364531 	2.42861286636753e-17 	0.431672792799728 	0.222330353694312 	-1.00569973143181e-20
8 	0.739945634786034 	2.08166817117217e-17 	0.440204134876244 	0.221825052663059 	1.4967323497356e-20
8 	0.756776025981913 	2.08166817117217e-17 	0.449054632264695 	0.221204674906027 	1.02345328043921e-18
8 	0.77420239510431 	2.08166817117217e-17 	0.458298296486813 	0.220482246219589 	-9.41226458892933e-19
8 	0.792245170304006 	2.42861286636753e-17 	0.467961170750299 	0.219651066838465 	-2.25389124544124e-20
8 	0.810925436997537 	2.42861286636753e-17 	0.478059801099014 	0.218692186415487 	-7.38827544889644e-20
8 	0.830264956544259 	2.42861286636753e-17 	0.488604777867432 	0.217586866026891 	-4.30244810832102e-20
8 	0.850286185340416 	2.08166817117217e-17 	0.499602000227766 	0.216316931423322 	-3.54645957955068e-20
8 	0.871012294337907 	1.04083408558608e-17 	0.511053570309637 	0.214864188641155 	-1.25012171354527e-20
8 	0.892467188996067 	3.46944695195361e-18 	0.522958033486984 	0.213210818127831 	8.16180957783302e-20
8 	0.914675529675727 	-3.46944695195361e-18 	0.535310434377685 	0.211339876036705 	-8.01958602288345e-19
8 	0.93766275248567 	-3.46944695195361e-18 	0.54810234363197 	0.209235705585752 	6.14654737500267e-19
8.00000000000001 	0.961455090592773 	0 	0.561321872073878 	0.206884324545859 	-8.25024257473223e-19
8.00000000000001 	0.986079596008391 	3.46944695195361e-18 	0.574953687237863 	0.204273804564689 	-1.72649521121316e-19
8.00000000000001 	1.01156416186494 	0 	0.588979050168963 	0.201394628611453 	7.270386224937e-19
8.00000000000001 	1.03793754519838 	-6.93889390390723e-18 	0.603375886858507 	0.198240015147305 	3.54920620392527e-16
8.00000000000001 	1.06522939025402 	-6.93889390390723e-18 	0.618118893079497 	0.19480619949564 	4.08502086820754e-16
8.00000000000001 	1.09347025233532 	-1.73472347597681e-17 	0.633179654100157 	0.191092662670066 	4.54637672694453e-16
8.00000000000001 	1.12269162221744 	-2.42861286636753e-17 	0.648526748682762 	0.187102298491218 	1.67892287833053e-15
8 	1.15292595115017 	-1.38777878078145e-17 	0.664125796248895 	0.182841512842191 	-9.52016064028563e-16
8 	1.18420667647759 	-3.46944695195361e-18 	0.679939400990564 	0.178320252134035 	-1.47542912804183e-15
8.00000000000001 	1.20932909530118 	-6.07153216591882e-18 	0.692393700376043 	0.174627488515782 	-7.56476086521039e-16
8.00000000000001 	1.2257861591868 	-1.64798730217797e-17 	0.70042589348299 	0.172184599724154 	-2.26821781745518e-16
8 	1.25005321751835 	-1.38777878078145e-17 	0.712048289178896 	0.168560890193209 	2.52257766361001e-19
8 	1.28469102414858 	-1.04083408558608e-17 	0.72825413269558 	0.163358314939143 	7.77318588648886e-20
8 	1.32051868198682 	-1.38777878078145e-17 	0.744493975866624 	0.157965842285761 	-4.81987356721241e-19
8.00000000000001 	1.3575749113027 	-1.73472347597681e-17 	0.760715834098222 	0.152407085586881 	4.08413575984023e-16
8.00000000000001 	1.39589958614844 	-1.73472347597681e-17 	0.776867292599269 	0.146705638319663 	1.82204952272505e-15
8.00000000000001 	1.43553376564931 	-1.21430643318376e-17 	0.792891838502693 	0.14088390486066 	-1.89979658368258e-15
8.00000000000001 	1.4765197263157 	-1.38777878078145e-17 	0.808710134242334 	0.134965555301807 	-2.82585147677986e-16
8.00000000000001 	1.51890099544909 	-1.38777878078145e-17 	0.824181864661125 	0.128987087659342 	3.20956429928355e-19
8.00000000000001 	1.56272238572048 	-8.67361737988404e-18 	0.839082504460303 	0.123016763788275 	-2.9102855479943e-20
8.00000000000001 	1.60803003100718 	-1.38777878078145e-17 	0.853203759009834 	0.117145055813268 	-1.46458798561702e-19
8.00000000000001 	1.65487142358089 	-1.38777878078145e-17 	0.866664158053803 	0.11137229676655 	2.610272736694e-19
8.00000000000001 	1.70329545274807 	-6.93889390390723e-18 	0.87977972887175 	0.105655869166264 	1.30410186549622e-20
8 	1.75335244505158 	-8.45677694538693e-18 	0.892631930335568 	0.0999985169324151 	-2.17182069277127e-19
8 	1.80509420615116 	-4.98732999343332e-18 	0.905181349379091 	0.0944204820552304 	3.83304591689261e-19
8.00000000000001 	1.85857406450892 	-3.46944695195361e-18 	0.917374036468271 	0.0889112485649447 	-1.96025050012971e-19
8.00000000000001 	1.91384691701537 	-6.93889390390723e-18 	0.92915262392961 	0.0834930009719754 	1.97239686879937e-19
8.00000000000001 	1.97096927670054 	-1.21430643318376e-17 	0.940353378071218 	0.0782211073415392 	3.87197977476032e-22
8 	2.02024009608346 	1.38777878078145e-17 	0.949365906438835 	0.0738121827767567 	-3.08736189853038e-21
8 	2.06000503604194 	2.08166817117217e-17 	0.956324603896185 	0.0703267367002113 	0
8 	2.09836474743796 	2.08166817117217e-17 	0.9625624856045 	0.0670955782503066 	0
8 	2.13536888877258 	1.38777878078145e-17 	0.968232178504996 	0.0640573265818733 	0
8 	2.17106536369585 	2.08166817117217e-17 	0.973381586312679 	0.0611957690397793 	0
8 	2.20550038302044 	2.77555756156289e-17 	0.978053575040596 	0.0584946713900131 	0
8 	2.23871852454378 	2.77555756156289e-17 	0.982286481934998 	0.0559402434674282 	0
8 	2.27076279075613 	2.77555756156289e-17 	0.986114514847416 	0.0535204374691218 	0
8 	2.30167466450941 	2.77555756156289e-17 	0.989568116095622 	0.0512245735375542 	0
8 	2.33149416271872 	2.77555756156289e-17 	0.992674310268687 	0.0490431556648768 	0
8 	2.36025988816626 	2.08166817117217e-17 	0.995457025834601 	0.0469677094392987 	0
8 	2.38800907947441 	1.38777878078145e-17 	0.997937388041143 	0.0449906393388963 	0
8 	2.41477765931295 	1.38777878078145e-17 	1.00013398332021 	0.0431051089097973 	0
8 	2.44060028090272 	1.38777878078145e-17 	1.0020630961286 	0.0413049400730036 	0
8 	2.46551037287586 	1.73472347597681e-17 	1.00373891969942 	0.0395845279778376 	0
8 	2.48954018255081 	2.08166817117217e-17 	1.00517374251916 	0.0379387687431187 	4.3594491172137e-16
8 	2.512720817678 	1.73472347597681e-17 	1.00637811249091 	0.0363629979317032 	3.9339237567405e-15
8 	2.53508228671037 	1.38777878078145e-17 	1.00736098075827 	0.0348529379763577 	-4.0299779748839e-15
8 	2.55665353765073 	1.38777878078145e-17 	1.00812982709703 	0.0334046530932915 	-4.44446738356016e-16
8 	2.57746249552636 	1.38777878078145e-17 	1.00869076866296 	0.032014510483179 	0
8 	2.59753609853934 	1.38777878078145e-17 	1.00904865373625 	0.030679146834069 	0
8 	2.61690033293929 	1.38777878078145e-17 	1.00920714193993 	0.0293954393155175 	0
8 	2.63558026666389 	1.73472347597681e-17 	1.00916877223709 	0.0281604803961195 	0
8 	2.65360008179049 	2.42861286636753e-17 	1.00893501983428 	0.0269715559336185 	0
8 	2.67098310584102 	2.77555756156289e-17 	1.008506342934 	0.0258261260827583 	0
8 	2.68775184198056 	2.42861286636753e-17 	1.00788222008346 	0.0247218086450763 	0
8 	2.70392799814879 	2.08166817117217e-17 	1.00706117865425 	0.0236563645500799 	0
8 	2.71953251516198 	2.42861286636753e-17 	1.00604081474662 	0.0226276852111475 	0
8 	2.73458559382185 	2.08166817117217e-17 	1.0048178045321 	0.0216337815441338 	0
8 	2.74910672106653 	2.08166817117217e-17 	1.0033879067116 	0.0206727744733942 	0
7.99999999999999 	2.76311469519732 	2.77555756156289e-17 	1.00174595535452 	0.0197428867801155 	0
8 	2.776627650214 	2.77555756156289e-17 	0.999885841872626 	0.0188424361723256 	0
8 	2.78966307929018 	3.12250225675825e-17 	0.997800484240668 	0.0179698294753072 	0
8 	2.80223785741904 	3.81639164714898e-17 	0.995481780766226 	0.0171235578563409 	0
8 	2.81436826325886 	4.16333634234434e-17 	0.992920544687018 	0.016302193008771 	0
8 	2.82607000020647 	3.46944695195361e-17 	0.990106414573376 	0.0155043842283985 	0
8 	2.83735821672613 	2.77555756156289e-17 	0.98702773385674 	0.0147288563205009 	-3.99320960939083e-16
8 	2.8482475259599 	2.77555756156289e-17 	0.983671390682868 	0.0139744082791005 	-6.76995872184132e-15
8 	2.85875202464506 	2.77555756156289e-17 	0.980022606549442 	0.013239912683173 	7.11511549912944e-15
8 	2.86888531136304 	2.77555756156289e-17 	0.97606465861649 	0.0125243157574209 	4.17449763769886e-16
8 	2.87866050414343 	2.77555756156289e-17 	0.971778515859906 	0.0118266380515877 	0
8 	2.88809025744591 	3.46944695195361e-17 	0.967142362908839 	0.0111459757023578 	0
8 	2.89718677854204 	4.16333634234434e-17 	0.962130976766972 	0.0104815022598 	0
8 	2.90596184331818 	4.5102810375397e-17 	0.956714909603295 	0.00983247108887147 	0
8 	2.91442681151997 	4.5102810375397e-17 	0.950859413771817 	0.00919821839853878 	0
8 	2.922592641458 	4.5102810375397e-17 	0.944523020629439 	0.00857816701390881 	0
8 	2.93046990419394 	5.20417042793042e-17 	0.937655648527376 	0.00797183109244566 	0
8 	2.93806879722526 	5.20417042793042e-17 	0.93019606105575 	0.00737882210558476 	0
8 	2.94539915768638 	4.5102810375397e-17 	0.922068413562802 	0.00679885656931276 	0
8 	2.95247047508334 	3.81639164714898e-17 	0.913177496265474 	0.00623176622627172 	0
8 	2.9592919035784 	3.46944695195361e-17 	0.903402075150386 	0.00567751168155937 	0
8 	2.96587227384055 	3.46944695195361e-17 	0.892585392876915 	0.00513620088571069 	0
8 	2.97222010447726 	3.46944695195361e-17 	0.880521321522743 	0.00460811439026025 	0
8 	2.97834361306218 	3.46944695195361e-17 	0.866933668772706 	0.00409374019127254 	0
8 	2.98425072677325 	3.12250225675825e-17 	0.851444357411377 	0.00359382263637255 	0
8 	2.98994909265477 	2.42861286636753e-17 	0.83352285795662 	0.00310942976641257 	0
8 	2.99544608751689 	2.42861286636753e-17 	0.812402689607178 	0.00264203369183737 	0
8 	3.00074882748522 	2.77555756156289e-17 	0.786937189067909 	0.0021936326590941 	0
8 	3.00586417721304 	2.77555756156289e-17 	0.755336895076265 	0.00176730509601447 	0
8 	3.01079875876789 	2.77555756156289e-17 	0.714662606173664 	0.00136863318120193 	-1.13927606855066e-14
8 	3.01555896020418 	2.42861286636753e-17 	0.659797047828216 	0.00100137322570138 	-6.86802093086728e-14
8 	3.02015094383281 	2.42861286636753e-17 	0.581467695612676 	0.000647434619325127 	1.00080359960558e-13
8 	3.02458065419861 	2.77555756156289e-17 	0.464782982211961 	0.000329237969614413 	1.51431138136435e-14
8 	3.02885382577582 	2.08166817117217e-17 	0.299997158167959 	0.000137978114676633 	0
8 	3.03297599039165 	1.21430643318376e-17 	0.103876105638551 	3.19208013466113e-05 	0
