1.00000000000453e-06 	1.00195556483898 	0 	0.889080927030845 	0.000100471432765477 	1566.144123237
1.00000000000453e-06 	1.00593833258374 	0 	0.889111340511282 	0.00086349002594781 	698.605812469361
1.00000000000453e-06 	1.01006700077429 	0 	0.889200103695946 	0.0032887231558217 	183.238614995353
1.00000000000453e-06 	1.0143469141712 	0 	0.889442239532803 	0.00747692344879592 	119.870844617952
1.00000000000453e-06 	1.01878361332929 	0 	0.889938734833727 	0.0118725986939002 	108.127563208735
1.00000000000453e-06 	1.02338284177015 	-3.46944695195361e-18 	0.890703567338255 	0.0148111237418962 	95.5175613343502
1.00000000000453e-06 	1.02815055341735 	-6.93889390390723e-18 	0.891714227156208 	0.0159754950268106 	78.5263261656201
1.00000000000453e-06 	1.03309292030413 	-6.93889390390723e-18 	0.892994213371891 	0.0160835927018631 	60.7664562128186
1.00000000000453e-06 	1.03821634056339 	-6.93889390390723e-18 	0.894578565254996 	0.0159882531695566 	44.7342558890952
1.00000000000453e-06 	1.04352744671036 	-1.04083408558608e-17 	0.896459253480816 	0.0162087267213563 	31.7812807460654
1.00000000000453e-06 	1.04903311422874 	-1.04083408558608e-17 	0.898589299802284 	0.016884898575076 	22.3506898224665
1.00000000000453e-06 	1.05474047047132 	-6.93889390390723e-18 	0.90091504940496 	0.0179115483915493 	16.0885620928784
1.00000000000453e-06 	1.06065690388671 	-3.46944695195361e-18 	0.903407006353169 	0.0191205585800745 	12.1618763282749
1.00000000000453e-06 	1.06679007358401 	-3.46944695195361e-18 	0.906056040920326 	0.0203846533188855 	9.71017653752811
1.00000000000453e-06 	1.07314791924792 	-6.93889390390723e-18 	0.908852439360855 	0.0216324571078347 	8.1147838700657
1.00000000000453e-06 	1.07973867141705 	-3.46944695195361e-18 	0.911785536524014 	0.022834428123859 	7.01316702913273
1.00000000000453e-06 	1.08657086213875 	0 	0.914846897020644 	0.023980765773263 	6.21010335877216
1.00000000000453e-06 	1.09365333601424 	0 	0.91802792890972 	0.0250686584337928 	5.59956226103214
1.00000000000453e-06 	1.10099526164836 	3.46944695195361e-18 	0.92131975134012 	0.0260971979754682 	5.1207511186998
1.00000000000453e-06 	1.10860614351884 	6.93889390390723e-18 	0.92471380672406 	0.0270656724932928 	4.73640657067165
1.00000000000453e-06 	1.11649583428022 	3.46944695195361e-18 	0.928201957097652 	0.0279729314342178 	4.42225891710966
1.00000000000453e-06 	1.12467454751866 	6.93889390390723e-18 	0.931776317582451 	0.0288171299699725 	4.16170942670711
1.00000000000453e-06 	1.13315287097387 	1.73472347597681e-17 	0.93542921335618 	0.0295957255136571 	3.94294864706266
1.00000000000453e-06 	1.1419417802455 	2.08166817117217e-17 	0.939153212048061 	0.0303056142426962 	3.7572892528484
1.00000000000453e-06 	1.15105265300152 	1.38777878078145e-17 	0.942941142952032 	0.0309433042206662 	3.59815386459709
1.00000000000453e-06 	1.1604972837072 	1.04083408558608e-17 	0.946786106323009 	0.0315050773716751 	3.46043943576297
1.00000000000453e-06 	1.17028789889366 	1.38777878078145e-17 	0.950681486162704 	0.0319871331950171 	3.34010677280284
1.00000000000453e-06 	1.1804371729856 	1.73472347597681e-17 	0.954620979400959 	0.0323857194909087 	3.23390680662221
1.00000000000453e-06 	1.19095824470904 	2.42861286636753e-17 	0.958598621784488 	0.0326972520337468 	3.13918987838885
1.00000000000453e-06 	1.20186473410003 	2.42861286636753e-17 	0.962608691922145 	0.0329184249049171 	3.05376644551869
1.00000000000453e-06 	1.21317076013637 	2.08166817117217e-17 	0.966645502789135 	0.0330463089109334 	2.97580047014005
1.00000000000453e-06 	1.22489095901542 	2.08166817117217e-17 	0.970703383119704 	0.0330784143590248 	2.90372506436628
1.00000000000453e-06 	1.23704050310128 	2.08166817117217e-17 	0.974776780714232 	0.0330127145290268 	2.83618139548623
1.00000000000453e-06 	1.24963512056619 	2.42861286636753e-17 	0.978860132689759 	0.0328476866599557 	2.77198312304372
1.00000000000453e-06 	1.26269111575139 	2.77555756156289e-17 	0.982947770589476 	0.0325824125906379 	2.71009656625676
1.00000000000453e-06 	1.27622539027388 	2.77555756156289e-17 	0.987034093040338 	0.0322166981757788 	2.64962227329562
1.00000000000453e-06 	1.29025546490643 	2.77555756156289e-17 	0.991113705794063 	0.0317511413384265 	2.58977094331717
1.00000000000453e-06 	1.30479950225895 	2.77555756156289e-17 	0.995181444497319 	0.0311871443972812 	2.52983867359043
1.00000000000453e-06 	1.31987633029101 	3.12250225675825e-17 	0.999232403565056 	0.0305269311475824 	2.46919265878162
1.00000000000453e-06 	1.33550546668544 	3.81639164714898e-17 	1.00326197199208 	0.0297736037438138 	2.40727039877999
1.00000000000453e-06 	1.35170714411495 	3.81639164714898e-17 	1.00726584550061 	0.0289312215875991 	2.34358626515959
1.00000000000453e-06 	1.3685023364343 	3.81639164714898e-17 	1.01124002146397 	0.0280048829618226 	2.27774093604869
1.00000000000453e-06 	1.38591278583198 	4.16333634234434e-17 	1.01518078415202 	0.0270008134910813 	2.20943376355533
1.00000000000453e-06 	1.40396103097652 	4.16333634234434e-17 	1.01908467235625 	0.0259264667481999 	2.13847701684521
1.00000000000453e-06 	1.42267043619387 	3.81639164714898e-17 	1.02294843612899 	0.0247906263680927 	2.06480804982575
1.00000000000453e-06 	1.44206522171365 	3.12250225675825e-17 	1.02676899019716 	0.0236034902099339 	1.98849587659252
1.00000000000453e-06 	1.46217049502345 	3.12250225675825e-17 	1.03054336753616 	0.0223767322476225 	1.90974501154633
1.00000000000453e-06 	1.48301228337162 	2.77555756156289e-17 	1.03426869491202 	0.0211238131761799 	1.82897469188268
1.00000000000453e-06 	1.50461756746086 	2.42861286636753e-17 	1.03794215678437 	0.0198610549382994 	1.74707213636448
1.00000000000453e-06 	1.52701431637603 	2.77555756156289e-17 	1.04156083036157 	0.0186082544733004 	1.66541963713433
1.00000000000453e-06 	1.55023152379144 	3.46944695195361e-17 	1.045121421781 	0.0173864803096883 	1.58524204357827
1.00000000000453e-06 	1.57429924550461 	3.81639164714898e-17 	1.04862017210897 	0.016214541752742 	1.50695970623655
1.00000000000453e-06 	1.59924863834497 	3.46944695195361e-17 	1.05205306679866 	0.0151074691344345 	1.43030774841133
1.00000000000453e-06 	1.62511200050782 	4.16333634234434e-17 	1.0554161538749 	0.0140766379879447 	1.35482936133032
1.00000000000453e-06 	1.65192281336593 	4.5102810375397e-17 	1.05870576424618 	0.0131298789045312 	1.28022268190669
1.00000000000453e-06 	1.67971578481283 	3.81639164714898e-17 	1.06191862006186 	0.0122714589039438 	1.20650901043267
1.00000000000453e-06 	1.70852689419381 	3.81639164714898e-17 	1.065051884176 	0.0115021518538191 	1.13407485070287
1.00000000000453e-06 	1.73839343888296 	4.16333634234434e-17 	1.06810316343948 	0.0108194258489322 	1.06360076961658
1.00000000000453e-06 	1.76935408256639 	4.5102810375397e-17 	1.07107052621043 	0.0102178484540137 	0.995928779686296
1.00000000000453e-06 	1.80144890529426 	4.85722573273506e-17 	1.0739527413372 	0.00968978698108482 	0.931950141229919
1.00000000000453e-06 	1.83471945536634 	4.85722573273506e-17 	1.07674915838062 	0.0092268522923363 	0.872857141000384
1.00000000000453e-06 	1.86920880311829 	4.5102810375397e-17 	1.07946020421188 	0.00882175932663872 	0.820542974665749
1.00000000000453e-06 	1.9049615966783 	5.20417042793042e-17 	1.08209216474253 	0.00846790039665252 	0.776758233268163
1.00000000000453e-06 	1.94202411976624 	5.8702771376512e-17 	1.08465198262541 	0.00815584990939542 	0.741631513321789
1.00000000001227e-06 	1.98044435161019 	1.38777878078145e-17 	1.08713063842702 	0.0078728587190985 	0.713930179647377
1.00000000001227e-06 	2.02024009608346 	1.38777878078145e-17 	1.08949425835481 	0.00761175977294618 	0.692653941699436
1.00000000001227e-06 	2.06000503604194 	6.93889390390723e-18 	1.09168849390578 	0.00737593572938267 	0.677522891904295
1.00000000001227e-06 	2.09836474743797 	0 	1.09367843605275 	0.00716825521281639 	0.668071964256102
1.00000000001227e-06 	2.13536888877258 	0 	1.09547363480256 	0.00698451745220338 	0.663354474891119
1.00000000001227e-06 	2.17106536369585 	3.46944695195361e-18 	1.09709974572622 	0.00681902466288322 	0.662470074403747
1.00000000001227e-06 	2.20550038302045 	3.46944695195361e-18 	1.09857971683975 	0.00666782764900249 	0.664778108764864
1.00000000001227e-06 	2.23871852454379 	-6.93889390390723e-18 	1.09993354454632 	0.00652839683621423 	0.669844312029863
1.00000000001227e-06 	2.27076279075614 	-1.38777878078145e-17 	1.10117780730529 	0.00639913078876371 	0.677385225889579
1.00000000001227e-06 	2.30167466450941 	-1.38777878078145e-17 	1.10232616843018 	0.00627906291660784 	0.687229271434808
1.00000000001227e-06 	2.33149416271873 	-1.04083408558608e-17 	1.10338986330259 	0.00616771198168076 	0.699292805784716
1.00000000001227e-06 	2.36025988816627 	-1.04083408558608e-17 	1.10437813335988 	0.00606498933839688 	0.713567150672815
1.00000000001227e-06 	2.38800907947441 	-1.38777878078145e-17 	1.10529863323018 	0.00597112522763955 	0.730113398730757
1.00000000001227e-06 	2.41477765931296 	-1.38777878078145e-17 	1.1061577698974 	0.00588660674134408 	0.749063181321228
1.00000000001227e-06 	2.44060028090273 	-1.38777878078145e-17 	1.10696096881523 	0.00581212833187076 	0.77062463653961
1.00000000001227e-06 	2.46551037287587 	-1.38777878078145e-17 	1.10771287936562 	0.00574855610429973 	0.795093336702354
1.00000000001227e-06 	2.48954018255081 	-1.38777878078145e-17 	1.10841753427824 	0.00569690660085862 	0.82286829821172
1.00000000001227e-06 	2.512720817678 	-1.38777878078145e-17 	1.10907847524519 	0.00565834038222975 	0.854473687602978
1.00000000001227e-06 	2.53508228671037 	-1.38777878078145e-17 	1.1096988496904 	0.00563417010484012 	0.890587048689608
1.00000000001227e-06 	2.55665353765073 	-1.04083408558608e-17 	1.11028147888492 	0.00562588195188845 	0.932073913112852
1.00000000001227e-06 	2.57746249552637 	-1.04083408558608e-17 	1.11082890029839 	0.00563516805319343 	0.980026046593642
1.00000000001227e-06 	2.59753609853934 	-1.04083408558608e-17 	1.11134339068272 	0.00566396531827907 	1.0357965610749
1.00000000001227e-06 	2.6169003329393 	-6.93889390390723e-18 	1.11182697546618 	0.0057144920690879 	1.10101967286172
1.00000000001227e-06 	2.6355802666639 	-1.38777878078145e-17 	1.11228143126932 	0.00578926727571489 	1.17759557635658
1.00000000001227e-06 	2.6536000817905 	-2.08166817117217e-17 	1.112708297054 	0.0058910881774541 	1.26761324780244
1.00000000001227e-06 	2.67098310584103 	-2.08166817117217e-17 	1.11310891361505 	0.00602293241292139 	1.37318187911121
1.00000000001227e-06 	2.68775184198057 	-2.77555756156289e-17 	1.1134844902871 	0.00618774048166837 	1.4961489114707
1.00000000001227e-06 	2.7039279981488 	-3.46944695195361e-17 	1.11383614343181 	0.00638798870907717 	1.6376251381304
1.00000000001227e-06 	2.71953251516198 	-3.46944695195361e-17 	1.11416479796828 	0.00662495109404491 	1.79738098376675
1.00000000001227e-06 	2.73458559382185 	-3.46944695195361e-17 	1.11447087993956 	0.00689773797694372 	1.97389441398732
1.00000000001227e-06 	2.74910672106653 	-3.46944695195361e-17 	1.11475387833342 	0.00720208305753434 	2.16539863369623
1.00000000001227e-06 	2.76311469519732 	-3.46944695195361e-17 	1.11501195504464 	0.00752828692793793 	2.36977692761048
1.00000000001227e-06 	2.776627650214 	-3.46944695195361e-17 	1.11524174904863 	0.00785895459358377 	2.58176543163008
1.00000000001227e-06 	2.78966307929018 	-3.46944695195361e-17 	1.11543890699716 	0.00816982747511504 	2.79094918600804
1.00000000001227e-06 	2.80223785741905 	-3.81639164714898e-17 	1.11560178856407 	0.00843604736704665 	2.98435177462065
1.00000000001227e-06 	2.81436826325886 	-4.5102810375397e-17 	1.11574079891701 	0.00864109683181424 	3.15206471466483
1.00000000001227e-06 	2.82607000020648 	-4.85722573273506e-17 	1.11587786061401 	0.00878145538979605 	3.29145260662488
1.00000000001227e-06 	2.83735821672614 	-5.55111512312578e-17 	1.11602424329376 	0.00886292413727691 	3.40590047573277
1.00000000001227e-06 	2.8482475259599 	-6.24500451351651e-17 	1.11617117957296 	0.00889306914018176 	3.49976190860757
1.00000000001227e-06 	2.85875202464506 	-6.24500451351651e-17 	1.11630853294226 	0.00887772186602311 	3.57621535530968
1.00000000001227e-06 	2.86888531136304 	-6.24500451351651e-17 	1.11643513661902 	0.00882234829314705 	3.6385649402352
1.00000000001227e-06 	2.87866050414343 	-6.24500451351651e-17 	1.11655282493539 	0.00873301975085146 	3.69098791215909
1.00000000001227e-06 	2.88809025744591 	-6.24500451351651e-17 	1.11666289516312 	0.00861591795180049 	3.7383656244683
1.00000000001227e-06 	2.89718677854204 	-6.24500451351651e-17 	1.11676646645748 	0.00847690651786788 	3.78612511941078
1.00000000001227e-06 	2.90596184331819 	-6.24500451351651e-17 	1.11686465856006 	0.00832122721038763 	3.84015518016771
1.00000000001227e-06 	2.91442681151997 	-6.59194920871187e-17 	1.11695855006899 	0.00815331712797227 	3.90682316429864
1.00000000001227e-06 	2.92259264145801 	-6.93889390390723e-17 	1.11704913157358 	0.00797672590769261 	3.99311723662166
1.00000000001227e-06 	2.93046990419395 	-7.28583859910259e-17 	1.11713726618973 	0.00779410486930305 	4.10694366739937
1.00000000001227e-06 	2.93806879722526 	-7.63278329429795e-17 	1.11722364955124 	0.00760723922560291 	4.25762408710182
1.00000000001227e-06 	2.94539915768639 	-7.28583859910259e-17 	1.11730877127169 	0.00741709679561333 	4.45666840243628
1.00000000001227e-06 	2.95247047508335 	-6.93889390390723e-17 	1.11739288133322 	0.00722386984899798 	4.71895499387098
1.00000000001227e-06 	2.9592919035784 	-6.93889390390723e-17 	1.11747596415099 	0.00702698847945123 	5.06454861866741
1.00000000001227e-06 	2.96587227384056 	-6.93889390390723e-17 	1.1175577225411 	0.00682508156397953 	5.52156245240746
1.00000000001227e-06 	2.97222010447726 	-7.28583859910259e-17 	1.11763757344492 	0.00661585077814707 	6.13079077960651
1.00000000001227e-06 	2.97834361306218 	-7.97972798949331e-17 	1.11771465750406 	0.0063957960040959 	6.95343378571459
1.00000000001227e-06 	2.98425072677325 	-7.97972798949331e-17 	1.11778786593547 	0.00615966816294399 	8.08436121204113
1.00000000001227e-06 	2.98994909265478 	-7.63278329429795e-17 	1.11785588965661 	0.00589938592159976 	9.67551199869159
1.00000000001227e-06 	2.99544608751689 	-7.63278329429795e-17 	1.11791729907639 	0.00560184811098976 	11.9781559605648
1.00000000001227e-06 	3.00074882748522 	-7.97972798949331e-17 	1.11797069355065 	0.00524447286005056 	15.4208226583522
1.00000000001227e-06 	3.00586417721304 	-8.67361737988404e-17 	1.11801503228434 	0.00478625861582592 	20.7578388869466
1.00000000001227e-06 	3.01079875876789 	-9.0205620750794e-17 	1.11804975312484 	0.00415462872531873 	29.3737091019928
1.00000000001227e-06 	3.01555896020418 	-9.0205620750794e-17 	1.11807458327949 	0.00324870019763337 	44.0994646904764
1.00000000001227e-06 	3.02015094383281 	-9.71445146547012e-17 	1.11809013162928 	0.00206598889485986 	73.0486338942345
1.00000000001227e-06 	3.02458065419862 	-1.00613961606655e-16 	1.11809865064305 	0.00092556904119444 	156.368303857092
1.00000000001227e-06 	3.02885382577583 	-1.04083408558608e-16 	1.11810315671409 	0.000244875495883746 	650.965985522103
