1 	0.451351328259074 	-2.42861286636753e-17 	-0.00368793742776163 	0.00299271706100426 	-2.43455923253244e-17
1 	0.457856884621384 	-2.77555756156289e-17 	-0.0119676645613201 	0.00949407445832213 	1.14818278117358e-16
1 	0.464597494115859 	-2.77555756156289e-17 	-0.0213017552890058 	0.0170504334744252 	5.32863768747216e-18
1 	0.471581531993916 	-3.46944695195361e-17 	-0.0315548149648844 	0.0255296760904365 	-5.95631953653278e-17
1 	0.478817663648872 	-4.16333634234434e-17 	-0.0421910596077743 	0.0344752913888504 	-5.20337146292767e-17
1 	0.486314854099112 	-4.16333634234434e-17 	-0.0522096208593796 	0.0430744673744442 	4.483201357065e-17
1 	0.494082377743682 	-3.46944695195361e-17 	-0.0606094877484173 	0.0504905520803626 	3.34305083061731e-18
1 	0.502129828395864 	-3.12250225675825e-17 	-0.0669703223255752 	0.0563458870215462 	-2.88515445929871e-18
1 	0.510467129600163 	-4.16333634234434e-17 	-0.0714464003856562 	0.0607358593794549 	-3.31795625529888e-18
1 	0.519104545238184 	-5.55111512312578e-17 	-0.0744183845176631 	0.063949198850345 	1.88354334491289e-17
1 	0.528052690428786 	-6.24500451351651e-17 	-0.0762554233520562 	0.0662725165144083 	-3.39373374758355e-17
1 	0.537322542727918 	-6.24500451351651e-17 	-0.0772416458855019 	0.0679284278983225 	1.56401256512972e-17
1 	0.546925453633457 	-6.24500451351651e-17 	-0.0775784428968782 	0.0690754011829 	-1.213748958296e-17
1 	0.556873160400326 	-6.24500451351651e-17 	-0.0774052663633303 	0.0698231184651084 	2.36562742935297e-17
1 	0.567177798171134 	-5.89805981832114e-17 	-0.0768190552265049 	0.070247274255639 	-2.1622711101817e-17
1 	0.577851912427522 	-4.85722573273506e-17 	-0.0758883923211697 	0.0704004775657789 	-1.78490607549998e-16
1 	0.588908471767319 	-3.81639164714898e-17 	-0.0746630663995334 	0.070319637723132 	-2.89696479602378e-15
1 	0.600360881012588 	-3.12250225675825e-17 	-0.073180403700252 	0.0700308410346229 	2.79525346020539e-15
1 	0.612222994653594 	-2.42861286636753e-17 	-0.0714694618301717 	0.069552558416072 	1.04824363955878e-16
1 	0.624509130633639 	-2.08166817117217e-17 	-0.0695537938287059 	0.0688977540611428 	8.10166091820573e-18
1 	0.637234084479704 	-1.73472347597681e-17 	-0.0674531664876716 	0.0680752475104071 	-1.63645758628776e-17
1 	0.650413143783826 	-1.73472347597681e-17 	-0.0651843436144498 	0.0670905235583736 	7.81065435150699e-18
1 	0.664062103040055 	-2.42861286636753e-17 	-0.0627607613973122 	0.0659460658948485 	-1.34403175565678e-17
1 	0.678197278841898 	-2.77555756156289e-17 	-0.0601905390039042 	0.0646411993297513 	-2.36109059947613e-15
1 	0.692835525445182 	-2.91650384398601e-17 	-0.0574771776885855 	0.0631688750850636 	2.26028939164883e-15
1 	0.707994250701264 	-3.78386558197441e-17 	-0.05459680853244 	0.0615171706698092 	2.50328861838105e-17
1 	0.723691432365647 	-4.55364912443912e-17 	-0.0514645861981044 	0.0596708066947953 	-7.2999557228826e-18
1 	0.739945634787164 	-4.64038529823796e-17 	-0.0479185956774942 	0.0575945713762527 	7.03784658453124e-18
1 	0.756776025983054 	-4.59701721133854e-17 	-0.043656573092138 	0.0552289483507288 	1.32067595645968e-19
1 	0.774202395105461 	-4.59701721133854e-17 	-0.0381918787971058 	0.0524960533714579 	6.18631438323052e-20
1 	0.792245170305166 	-5.03069808033274e-17 	-0.0308078015124123 	0.0493109693083641 	6.60757790534922e-20
1 	0.810925436998707 	-5.20417042793042e-17 	-0.0204536015343795 	0.0455803517208499 	1.06175249026104e-16
1 	0.830264956545436 	-5.29090660172926e-17 	-0.00564499003486168 	0.0412109794750033 	1.25957969522574e-17
1 	0.850286185341601 	-5.3776427755281e-17 	0.0155312991483859 	0.0361590375917852 	-2.58988443616404e-16
1 	0.871012294339098 	-4.33680868994202e-17 	0.0453642408846679 	0.0304411069428211 	-3.12083622111374e-17
1 	0.892467188997261 	-3.64291929955129e-17 	0.0863388147010896 	0.0241179397828177 	1.535745931649e-16
1 	0.914675529676922 	-3.81639164714898e-17 	0.140097387495861 	0.0174767486172947 	4.16079618743755e-19
1 	0.937662752486865 	-4.33680868994202e-17 	0.205982457605168 	0.0111163404014441 	4.77292680291412e-18
1 	0.961455090593968 	-4.5102810375397e-17 	0.281301425662165 	0.00569293941858833 	-4.19060913187657e-18
1 	0.986079596009581 	-4.16333634234434e-17 	0.362218127123947 	0.00170005282089891 	-5.4487539304877e-19
1 	1.01156416186612 	-4.5102810375397e-17 	0.444153941128182 	-0.000669376373712827 	2.87270904336599e-18
1 	1.03793754519955 	-4.85722573273506e-17 	0.522139799288171 	-0.00149899407920589 	-1.52172938598339e-18
1 	1.06522939025519 	-4.5102810375397e-17 	0.591786932090679 	-0.00111228077284885 	-4.00096954224622e-19
1 	1.09347025233648 	-4.5102810375397e-17 	0.650467396764024 	-2.22126147978398e-05 	2.81915801837554e-19
0.999999999999999 	1.12269162221858 	-3.81639164714898e-17 	0.698018358847831 	0.00123477298807761 	5.98701635796726e-19
0.999999999999999 	1.1529259511513 	-3.12250225675825e-17 	0.736228128204941 	0.00230745610379459 	-8.1952160806281e-19
0.999999999999999 	1.18420667647869 	-3.12250225675825e-17 	0.767494841904732 	0.00304586351984617 	-6.53969437725138e-19
0.999999999999999 	1.20932909529518 	-2.77555756156289e-17 	0.788599018520412 	0.00339899287122634 	3.74656348138627e-19
0.999999999999999 	1.22578615918077 	-3.12250225675825e-17 	0.800955984865242 	0.00353271039054392 	5.36362191017312e-19
1 	1.25005321751936 	-3.12250225675825e-17 	0.817653792065246 	0.00362913173325763 	1.52661512050478e-19
1 	1.28469102414952 	-2.77555756156289e-17 	0.83958050420876 	0.00365807871761839 	-2.24846550526459e-19
1 	1.3205186819877 	-2.42861286636753e-17 	0.860672501161424 	0.00364256339947864 	-2.8388520417886e-19
1 	1.3575749113035 	-1.38777878078145e-17 	0.881433349975867 	0.0036605322662025 	2.05355570351892e-19
1 	1.39589958614917 	-1.04083408558608e-17 	0.902106723338151 	0.00376473101232985 	-2.87696785167804e-19
1 	1.43553376564998 	-1.38777878078145e-17 	0.922764834477526 	0.00398488537090665 	3.54432544565992e-19
1 	1.4765197263163 	-1.04083408558608e-17 	0.943369919299637 	0.00433195393497722 	-4.11948439052963e-19
1 	1.51890099544962 	-6.93889390390723e-18 	0.963813971114705 	0.00480201107901526 	5.65662466763361e-19
1 	1.56272238572095 	0 	0.983944868639383 	0.0053793401064914 	-2.43748280458849e-20
1 	1.60803003100759 	1.04083408558608e-17 	1.00358498535427 	0.00603937406291541 	2.42262739667003e-19
1 	1.65487142358123 	1.04083408558608e-17 	1.02254577347892 	0.00675193655533483 	-4.34985063788433e-19
1 	1.70329545274835 	0 	1.04064316824399 	0.00748358148419641 	1.22660912959577e-20
1 	1.75335244505181 	-3.46944695195361e-18 	1.05771416182363 	0.00819947851077958 	-1.09040541577624e-19
1 	1.80509420615134 	2.81892564846231e-18 	1.07361073072218 	0.00886584664638174 	-1.13774228429401e-19
1 	1.85857406450905 	8.02309607639273e-18 	1.08819225974841 	0.00944911783481313 	-1.90672473789571e-21
1 	1.91384691701544 	5.20417042793042e-18 	1.10141216770948 	0.00992700305184659 	1.03594041828392e-19
1 	1.97096927670056 	-6.07153216591882e-18 	1.11308891892092 	0.0102562765918674 	8.44752654524312e-21
1 	2.02024009608346 	-1.04083408558608e-17 	1.12173276484532 	0.0104482629435572 	0
1 	2.06000503604194 	-1.04083408558608e-17 	1.12793083013148 	0.0105545509530503 	0
1 	2.09836474743796 	-1.04083408558608e-17 	1.13302060788676 	0.0105900568215349 	0
1 	2.13536888877257 	-1.04083408558608e-17 	1.13722129256426 	0.010574783512207 	0
1 	2.17106536369584 	-1.04083408558608e-17 	1.14062990625245 	0.0105178143925232 	0
1 	2.20550038302044 	-1.04083408558608e-17 	1.14332700091363 	0.0104262261276415 	0
1 	2.23871852454378 	-1.04083408558608e-17 	1.14537904363946 	0.0103063074077148 	0
1 	2.27076279075613 	-1.04083408558608e-17 	1.14684082149212 	0.0101633982852454 	0
1 	2.3016746645094 	-1.38777878078145e-17 	1.14775735960084 	0.0100019639852208 	0
1 	2.33149416271872 	-2.08166817117217e-17 	1.14816551160563 	0.00982570736404463 	0
1 	2.36025988816626 	-2.42861286636753e-17 	1.14809534092146 	0.00963767197491726 	0
1 	2.38800907947441 	-2.42861286636753e-17 	1.1475713461536 	0.00944034308409844 	0
1 	2.41477765931295 	-3.12250225675825e-17 	1.14661355510655 	0.00923574508593807 	0
1 	2.44060028090272 	-3.81639164714898e-17 	1.14523850050599 	0.00902553186913265 	0
1 	2.46551037287586 	-3.46944695195361e-17 	1.14346008450706 	0.00881106794473432 	0
1 	2.48954018255081 	-2.77555756156289e-17 	1.14129033315189 	0.00859349918357307 	-3.97828980415898e-16
1 	2.512720817678 	-2.42861286636753e-17 	1.13874003524368 	0.00837381269864641 	-6.75036199776718e-15
1 	2.53508228671037 	-2.42861286636753e-17 	1.1358192537895 	0.00815288585027664 	6.96409669460186e-15
1 	2.55665353765073 	-2.42861286636753e-17 	1.13253769441824 	0.00793152453377586 	4.0891236205858e-16
1 	2.57746249552636 	-2.42861286636753e-17 	1.12890491654027 	0.00771049075841385 	0
1 	2.59753609853934 	-1.73472347597681e-17 	1.124930382003 	0.00749051891883865 	-9.17290349394893e-16
1 	2.61690033293929 	-1.04083408558608e-17 	1.12062335428672 	0.00727232027506229 	-8.22309394556925e-15
1 	2.63558026666389 	-1.04083408558608e-17 	1.11599268751058 	0.00705657742027213 	8.50340316480096e-15
1 	2.65360008179049 	-1.04083408558608e-17 	1.11104656864744 	0.00684391746142283 	9.42500519686195e-16
1 	2.67098310584102 	-1.38777878078145e-17 	1.10579226964877 	0.00663482087960516 	0
1 	2.68775184198056 	-2.08166817117217e-17 	1.10023586433018 	0.00642978243396762 	0
1 	2.70392799814879 	-2.08166817117217e-17 	1.09437571745486 	0.00623069879164099 	0
1 	2.71953251516198 	-1.38777878078145e-17 	1.08815220887728 	0.00603371977038022 	0
1 	2.73458559382185 	-6.93889390390723e-18 	1.08143947646977 	0.00583357786165357 	0
1 	2.74910672106653 	-6.93889390390723e-18 	1.07421365428 	0.00562328708856952 	0
1 	2.76311469519732 	-1.04083408558608e-17 	1.06664450314305 	0.00540097983427466 	0
1 	2.776627650214 	-6.93889390390723e-18 	1.05896798580405 	0.00516291754265166 	0
1 	2.78966307929018 	0 	1.051362287383 	0.00490659809531527 	0
1 	2.80223785741904 	3.46944695195361e-18 	1.04385766912469 	0.0046382183250953 	0
1 	2.81436826325886 	0 	1.03636735193722 	0.00436215420055905 	0
1 	2.82607000020648 	0 	1.02882881576144 	0.00408591236628182 	0
1 	2.83735821672614 	6.93889390390723e-18 	1.02123668501513 	0.00381047362013278 	-9.61464101549262e-19
1 	2.8482475259599 	1.04083408558608e-17 	1.01358804654232 	0.00353595757884509 	1.06064105691828e-14
1 	2.85875202464506 	1.38777878078145e-17 	1.00587495968281 	0.00326294025161124 	-1.08695199223447e-14
1 	2.86888531136304 	1.73472347597681e-17 	0.998083922111172 	0.00299218273198379 	7.78165248011476e-19
1 	2.87866050414343 	1.38777878078145e-17 	0.99019533040395 	0.00272449986936383 	0
1 	2.88809025744591 	1.38777878078145e-17 	0.982182837788416 	0.00246075989157429 	0
1 	2.89718677854204 	1.38777878078145e-17 	0.974012536042546 	0.00220188189009337 	0
1 	2.90596184331818 	1.04083408558608e-17 	0.96564186834733 	0.00194883139871808 	0
1 	2.91442681151997 	6.93889390390723e-18 	0.9570181564302 	0.00170261982123591 	0
1 	2.922592641458 	3.46944695195361e-18 	0.948076593223919 	0.00146430789308592 	0
1 	2.93046990419394 	3.46944695195361e-18 	0.938737505670512 	0.00123501265376322 	0
1 	2.93806879722526 	6.93889390390723e-18 	0.92890262505429 	0.00101591730734743 	0
1 	2.94539915768638 	1.04083408558608e-17 	0.918450006248915 	0.000808282777162578 	0
1 	2.95247047508334 	1.04083408558608e-17 	0.907227100893883 	0.000613458703795291 	0
1 	2.9592919035784 	1.21430643318376e-17 	0.895041295684048 	0.000432891275900177 	0
1 	2.96587227384055 	1.38777878078145e-17 	0.881646948897638 	0.000268126566636518 	0
1 	2.97222010447726 	1.04083408558608e-17 	0.866727549099627 	0.000120786580516888 	0
1 	2.97834361306218 	3.46944695195361e-18 	0.849870971399622 	-7.60133736373881e-06 	0
1 	2.98425072677325 	0 	0.830530814058413 	-0.000115733484239955 	0
1 	2.98994909265477 	-3.46944695195361e-18 	0.807912444991854 	-0.000200080382422244 	2.24133138002367e-15
1 	2.99544608751689 	-6.93889390390723e-18 	0.780756875366069 	-0.000257896404072492 	1.85909027725996e-15
1 	3.00074882748522 	-6.93889390390723e-18 	0.747317154962898 	-0.000285717723348548 	-3.00570595968073e-15
1 	3.00586417721304 	-6.93889390390723e-18 	0.705409046297925 	-0.000284217396094764 	-2.62346485692097e-15
1 	3.01079875876789 	-6.93889390390723e-18 	0.652038992984296 	-0.000257418060716777 	-9.55150974644972e-15
1 	3.01555896020418 	0 	0.582882862414905 	-0.000211891876464032 	-8.34085865094912e-14
1 	3.02015094383281 	3.46944695195361e-18 	0.491805980187266 	-0.000155871272972641 	1.10590835735781e-13
1 	3.02458065419861 	0 	0.372274222174498 	-9.56741513076262e-05 	1.20231555983791e-14
1 	3.02885382577582 	0 	0.228464771257686 	-4.16824123930452e-05 	0
1 	3.03297599039165 	-6.93889390390723e-18 	0.076709975318456 	-6.42120920092204e-06 	0
