1.00000000000453e-06 	1.00195556483898 	0 	0.921346204254939 	0.000211860077975429 	1568.94200803275
1.00000000000453e-06 	1.00593833258374 	0 	0.921376535208781 	0.00165520250516911 	705.336248372768
1.00000000000453e-06 	1.01006700077429 	0 	0.921471899661016 	0.00519844207313408 	179.922746689743
1.00000000000453e-06 	1.0143469141712 	0 	0.921687563893611 	0.00970493790591125 	89.6256450789841
1.00000000000453e-06 	1.01878361332929 	0 	0.922053843054704 	0.013558401078855 	55.1459604825023
1.00000000000453e-06 	1.02338284177015 	-3.46944695195361e-18 	0.922560150139603 	0.0166327557759482 	36.879247933236
1.00000000000453e-06 	1.02815055341735 	-6.93889390390723e-18 	0.92318245485591 	0.0193409534359918 	26.4124900725484
1.00000000000453e-06 	1.03309292030413 	-6.93889390390723e-18 	0.923900626924813 	0.0218234275847755 	20.0719785708145
1.00000000000453e-06 	1.03821634056339 	-6.93889390390723e-18 	0.924700034120702 	0.0241041762966369 	15.9801130699204
1.00000000000453e-06 	1.04352744671036 	-1.04083408558608e-17 	0.925571813749854 	0.0261922718245249 	13.1747593908472
1.00000000000453e-06 	1.04903311422874 	-1.04083408558608e-17 	0.926511465306035 	0.0281010184939913 	11.1509975476881
1.00000000000453e-06 	1.05474047047132 	-6.93889390390723e-18 	0.927516929901325 	0.0298466330397159 	9.63041793847867
1.00000000000453e-06 	1.06065690388671 	-3.46944695195361e-18 	0.928587379773435 	0.0314455171914637 	8.45054463602529
1.00000000000453e-06 	1.06679007358401 	-3.46944695195361e-18 	0.929722602240928 	0.0329128010586726 	7.5113198624113
1.00000000000453e-06 	1.07314791924792 	-6.93889390390723e-18 	0.930922663739085 	0.0342618192770345 	6.74812926676331
1.00000000000453e-06 	1.07973867141705 	-3.46944695195361e-18 	0.932187711092221 	0.03550405057875 	6.1175076132049
1.00000000000453e-06 	1.08657086213875 	0 	0.933517852045356 	0.0366492500349001 	5.58917826787702
1.00000000000453e-06 	1.09365333601424 	0 	0.934913082786772 	0.0377056429854234 	5.14141255483761
1.00000000000453e-06 	1.10099526164836 	3.46944695195361e-18 	0.936373242799453 	0.0386801232756526 	4.75821158018468
1.00000000000453e-06 	1.10860614351884 	6.93889390390723e-18 	0.937897985797506 	0.0395784336331803 	4.42753170851303
1.00000000000453e-06 	1.11649583428022 	3.46944695195361e-18 	0.939486761594959 	0.040405321637473 	4.14013077270753
1.00000000000453e-06 	1.12467454751866 	6.93889390390723e-18 	0.941138807727687 	0.0411646715143621 	3.88879598398092
1.00000000000453e-06 	1.13315287097387 	1.73472347597681e-17 	0.942853150468689 	0.0418596146667899 	3.66781357059432
1.00000000000453e-06 	1.1419417802455 	2.08166817117217e-17 	0.94462861400276 	0.0424926224481495 	3.47259568893235
1.00000000000453e-06 	1.15105265300152 	1.38777878078145e-17 	0.946463836028127 	0.0430655844680353 	3.29941226732562
1.00000000000453e-06 	1.1604972837072 	1.04083408558608e-17 	0.948357287752125 	0.0435798753267911 	3.1451945259289
1.00000000000453e-06 	1.17028789889366 	1.38777878078145e-17 	0.950307295952669 	0.0440364123115136 	3.00738854416338
1.00000000000453e-06 	1.1804371729856 	1.73472347597681e-17 	0.952312064683204 	0.0444357062971666 	2.883844505615
1.00000000000453e-06 	1.19095824470904 	2.42861286636753e-17 	0.954369694334627 	0.044777907872143 	2.77273188476741
1.00000000000453e-06 	1.20186473410003 	2.42861286636753e-17 	0.956478195970236 	0.0450628505172839 	2.67247386016918
1.00000000000453e-06 	1.21317076013637 	2.08166817117217e-17 	0.958635499037129 	0.0452900924754872 	2.58169623829082
1.00000000000453e-06 	1.22489095901542 	2.08166817117217e-17 	0.96083945129701 	0.0454589587234492 	2.49918751019104
1.00000000000453e-06 	1.23704050310128 	2.08166817117217e-17 	0.963087812473383 	0.045568584203241 	2.42386758273257
1.00000000000453e-06 	1.24963512056619 	2.42861286636753e-17 	0.965378245595413 	0.0456179592740925 	2.35476340234315
1.00000000000453e-06 	1.26269111575139 	2.77555756156289e-17 	0.967708307345661 	0.0456059781537032 	2.29099021008712
1.00000000000453e-06 	1.27622539027388 	2.77555756156289e-17 	0.970075435992957 	0.0455314907255382 	2.23173754337637
1.00000000000453e-06 	1.29025546490643 	2.77555756156289e-17 	0.9724769381468 	0.0453933576727938 	2.1762592980795
1.00000000000453e-06 	1.30479950225895 	2.77555756156289e-17 	0.974909977742009 	0.0451905086916996 	2.12386719887393
1.00000000000453e-06 	1.31987633029101 	3.12250225675825e-17 	0.977371570001056 	0.0449220033072125 	2.07392702032218
1.00000000000453e-06 	1.33550546668544 	3.81639164714898e-17 	0.979858581416041 	0.0445870934662842 	2.02585694875511
1.00000000000453e-06 	1.35170714411495 	3.81639164714898e-17 	0.98236773550744 	0.0441852867677583 	1.97912755677951
1.00000000000453e-06 	1.3685023364343 	3.81639164714898e-17 	0.984895624239595 	0.0437164090374236 	1.93326294696788
1.00000000000453e-06 	1.38591278583198 	4.16333634234434e-17 	0.987438725336473 	0.0431806650265436 	1.88784270368424
1.00000000000453e-06 	1.40396103097652 	4.16333634234434e-17 	0.989993424942293 	0.0425786960725584 	1.84250434799383
1.00000000000453e-06 	1.42267043619387 	3.81639164714898e-17 	0.992556043782299 	0.0419116333933028 	1.7969459924643
1.00000000000453e-06 	1.44206522171365 	3.12250225675825e-17 	0.995122864658042 	0.0411811454332297 	1.75092884982431
1.00000000000453e-06 	1.46217049502345 	3.12250225675825e-17 	0.997690159380302 	0.0403894773496156 	1.70427917295874
1.00000000000453e-06 	1.48301228337162 	2.77555756156289e-17 	1.00025421379104 	0.0395394802120782 	1.6568891333905
1.00000000000453e-06 	1.50461756746086 	2.42861286636753e-17 	1.00281134988263 	0.0386346270747064 	1.60871616719958
1.00000000000453e-06 	1.52701431637603 	2.77555756156289e-17 	1.00535794393186 	0.0376790130442899 	1.5597804559732
1.00000000000453e-06 	1.55023152379144 	3.46944695195361e-17 	1.00789043957492 	0.0366773367637907 	1.51016041367494
1.00000000000453e-06 	1.57429924550461 	3.81639164714898e-17 	1.01040535507684 	0.0356348611975025 	1.45998625833611
1.00000000000453e-06 	1.59924863834497 	3.46944695195361e-17 	1.01289928481197 	0.0345573521604118 	1.40943192785069
1.00000000000453e-06 	1.62511200050782 	4.16333634234434e-17 	1.01536889609268 	0.0334509937195806 	1.35870575618081
1.00000000000453e-06 	1.65192281336593 	4.5102810375397e-17 	1.01781092328309 	0.0323222804202366 	1.30804047142794
1.00000000000453e-06 	1.67971578481283 	3.81639164714898e-17 	1.02022216128978 	0.0311778872672462 	1.25768320497579
1.00000000000453e-06 	1.70852689419381 	3.81639164714898e-17 	1.02259946079875 	0.0300245196509753 	1.20788629825997
1.00000000000453e-06 	1.73839343888296 	4.16333634234434e-17 	1.02493972847423 	0.0288687469066201 	1.15889974570665
1.00000000000453e-06 	1.76935408256639 	4.5102810375397e-17 	1.02723993626582 	0.027716824695629 	1.11096608437597
1.00000000000453e-06 	1.80144890529426 	4.85722573273506e-17 	1.02949714349571 	0.0265745126439249 	1.0643183251212
1.00000000000453e-06 	1.83471945536634 	4.85722573273506e-17 	1.03170853375668 	0.0254468943441449 	1.01918098463028
1.00000000000453e-06 	1.86920880311829 	4.5102810375397e-17 	1.03387147817636 	0.0243382066613795 	0.975773439395449
1.00000000000453e-06 	1.9049615966783 	5.20417042793042e-17 	1.03598366216046 	0.0232516845751263 	0.934313916175931
1.00000000000453e-06 	1.94202411976624 	5.8702771376512e-17 	1.0380430068225 	0.022189425688102 	0.895021754000078
1.00000000001227e-06 	1.98044435161019 	1.38777878078145e-17 	1.0400472980333 	0.0211524269432228 	0.858120677772
1.00000000001227e-06 	2.02024009608346 	1.38777878078145e-17 	1.04197889988465 	0.0201490182588188 	0.824103846336379
1.00000000001227e-06 	2.06000503604194 	6.93889390390723e-18 	1.04379175770544 	0.0192017960708518 	0.793856286079722
1.00000000001227e-06 	2.09836474743797 	0 	1.04544973118881 	0.0183275777760639 	0.767892951035532
1.00000000001227e-06 	2.13536888877258 	0 	1.04695571412908 	0.0175232314511363 	0.745971935559645
1.00000000001227e-06 	2.17106536369585 	3.46944695195361e-18 	1.04832733058429 	0.0167788373231403 	0.727630832384434
1.00000000001227e-06 	2.20550038302045 	3.46944695195361e-18 	1.04957978915451 	0.0160862588426083 	0.712486138717143
1.00000000001227e-06 	2.23871852454379 	-6.93889390390723e-18 	1.0507261573795 	0.0154388964978214 	0.700228697872091
1.00000000001227e-06 	2.27076279075614 	-1.38777878078145e-17 	1.05177775605448 	0.0148314332192442 	0.690616965726576
1.00000000001227e-06 	2.30167466450941 	-1.38777878078145e-17 	1.05274442188356 	0.0142595984143239 	0.683469416649208
1.00000000001227e-06 	2.33149416271873 	-1.04083408558608e-17 	1.05363472432819 	0.0137199624990237 	0.678657038520496
1.00000000001227e-06 	2.36025988816627 	-1.04083408558608e-17 	1.05445614980124 	0.0132097653700099 	0.676096612179916
1.00000000001227e-06 	2.38800907947441 	-1.38777878078145e-17 	1.05521525588239 	0.0127267776929873 	0.675745196837286
1.00000000001227e-06 	2.41477765931296 	-1.38777878078145e-17 	1.05591780097526 	0.0122691915607645 	0.677596001184256
1.00000000001227e-06 	2.44060028090273 	-1.38777878078145e-17 	1.05656885411032 	0.0118355361347069 	0.681675648102053
1.00000000001227e-06 	2.46551037287587 	-1.38777878078145e-17 	1.05717288842231 	0.0114246137705422 	0.688042742566352
1.00000000001227e-06 	2.48954018255081 	-1.38777878078145e-17 	1.05773386104413 	0.0110354524647431 	0.696787611288476
1.00000000001227e-06 	2.512720817678 	-1.38777878078145e-17 	1.05825528160175 	0.0106672709900114 	0.708033077397291
1.00000000001227e-06 	2.53508228671037 	-1.38777878078145e-17 	1.05874027108738 	0.010319453661534 	0.721936145232772
1.00000000001227e-06 	2.55665353765073 	-1.04083408558608e-17 	1.05919161258713 	0.00999153220020904 	0.738690485115808
1.00000000001227e-06 	2.57746249552637 	-1.04083408558608e-17 	1.05961179511065 	0.00968317258993133 	0.758529616225236
1.00000000001227e-06 	2.59753609853934 	-1.04083408558608e-17 	1.06000305158723 	0.00939416514616457 	0.781730681031562
1.00000000001227e-06 	2.6169003329393 	-6.93889390390723e-18 	1.06036739193939 	0.00912441622231048 	0.808618682655953
1.00000000001227e-06 	2.6355802666639 	-1.38777878078145e-17 	1.06070663201186 	0.008873940089686 	0.839571013959224
1.00000000001227e-06 	2.6536000817905 	-2.08166817117217e-17 	1.06102241901305 	0.00864284955606814 	0.875022042560481
1.00000000001227e-06 	2.67098310584103 	-2.08166817117217e-17 	1.06131625401472 	0.00843134386647113 	0.915467430325718
1.00000000001227e-06 	2.68775184198057 	-2.77555756156289e-17 	1.061589511949 	0.00823969240041268 	0.961467764613996
1.00000000001227e-06 	2.7039279981488 	-3.46944695195361e-17 	1.06184345943869 	0.00806821270024048 	1.01365097438748
1.00000000001227e-06 	2.71953251516198 	-3.46944695195361e-17 	1.06207927069731 	0.00791724150906924 	1.07271292013401
1.00000000001227e-06 	2.73458559382185 	-3.46944695195361e-17 	1.06229804164046 	0.00778709784958196 	1.13941551806633
1.00000000001227e-06 	2.74910672106653 	-3.46944695195361e-17 	1.0625008022669 	0.00767803781833595 	1.21458183456335
1.00000000001227e-06 	2.76311469519732 	-3.46944695195361e-17 	1.06268852730214 	0.00759020175732769 	1.29908782246446
1.00000000001227e-06 	2.776627650214 	-3.46944695195361e-17 	1.06286214506086 	0.00752355578383106 	1.39385081893242
1.00000000001227e-06 	2.78966307929018 	-3.46944695195361e-17 	1.06302254448381 	0.00747783119787339 	1.4998156147939
1.00000000001227e-06 	2.80223785741905 	-3.81639164714898e-17 	1.06317058034414 	0.00745246680847066 	1.61793982207872
1.00000000001227e-06 	2.81436826325886 	-4.5102810375397e-17 	1.06330707669382 	0.00744656038213001 	1.74918133183022
1.00000000001227e-06 	2.82607000020648 	-4.85722573273506e-17 	1.0634328287166 	0.00745883583710236 	1.89449172682387
1.00000000001227e-06 	2.83735821672614 	-5.55111512312578e-17 	1.0635486032498 	0.00748763217393161 	2.05482041547689
1.00000000001227e-06 	2.8482475259599 	-6.24500451351651e-17 	1.06365513830697 	0.00753091833458324 	2.23113482380601
1.00000000001227e-06 	2.85875202464506 	-6.24500451351651e-17 	1.06375314195789 	0.00758633538944725 	2.42446215020929
1.00000000001227e-06 	2.86888531136304 	-6.24500451351651e-17 	1.0638432908942 	0.00765126411327481 	2.63595803293041
1.00000000001227e-06 	2.87866050414343 	-6.24500451351651e-17 	1.06392622893348 	0.00772291274891016 	2.86700726539353
1.00000000001227e-06 	2.88809025744591 	-6.24500451351651e-17 	1.06400256561081 	0.00779841718897772 	3.11936185885216
1.00000000001227e-06 	2.89718677854204 	-6.24500451351651e-17 	1.06407287489705 	0.00787494436751376 	3.39532287652382
1.00000000001227e-06 	2.90596184331819 	-6.24500451351651e-17 	1.06413769398869 	0.00794978949021949 	3.69797525005362
1.00000000001227e-06 	2.91442681151997 	-6.59194920871187e-17 	1.06419752204793 	0.00802045867738903 	4.03149009108279
1.00000000001227e-06 	2.92259264145801 	-6.93889390390723e-17 	1.06425281873987 	0.00808473023246191 	4.40151796816885
1.00000000001227e-06 	2.93046990419395 	-7.28583859910259e-17 	1.06430400241384 	0.00814068951131219 	4.81571095499767
1.00000000001227e-06 	2.93806879722526 	-7.63278329429795e-17 	1.06435144780507 	0.0081867335982434 	5.28443382269764
1.00000000001227e-06 	2.94539915768639 	-7.28583859910259e-17 	1.06439548318587 	0.00822154195363144 	5.82176051246554
1.00000000001227e-06 	2.95247047508335 	-6.93889390390723e-17 	1.06443638696253 	0.008244006938876 	6.44690985978885
1.00000000001227e-06 	2.9592919035784 	-6.93889390390723e-17 	1.06447438382839 	0.00825311219443901 	7.18637066088789
1.00000000001227e-06 	2.96587227384056 	-6.93889390390723e-17 	1.06450964093711 	0.00824773469154582 	8.07713097975922
1.00000000001227e-06 	2.97222010447726 	-7.28583859910259e-17 	1.06454226482775 	0.00822632312620146 	9.17171911212798
1.00000000001227e-06 	2.97834361306218 	-7.97972798949331e-17 	1.06457229679116 	0.00818636218531203 	10.5463035417038
1.00000000001227e-06 	2.98425072677325 	-7.97972798949331e-17 	1.06459970117381 	0.00812345261616352 	12.3141451251085
1.00000000001227e-06 	2.98994909265478 	-7.63278329429795e-17 	1.06462439867474 	0.00802969412097098 	14.6488429818238
1.00000000001227e-06 	2.99544608751689 	-7.63278329429795e-17 	1.06464645499222 	0.00788934431919791 	17.8289620945811
1.00000000001227e-06 	3.00074882748522 	-7.97972798949331e-17 	1.06466596389816 	0.00767006312419348 	22.3195591823963
1.00000000001227e-06 	3.00586417721304 	-8.67361737988404e-17 	1.06468249905318 	0.00730922149200507 	28.9036574537722
1.00000000001227e-06 	3.01079875876789 	-9.0205620750794e-17 	1.06469533761437 	0.00669373699286105 	38.9447038078142
1.00000000001227e-06 	3.01555896020418 	-9.0205620750794e-17 	1.06470424356496 	0.00564602337155814 	55.1851354012168
1.00000000001227e-06 	3.02015094383281 	-9.71445146547012e-17 	1.06470963234891 	0.00398588890868944 	85.3576488169387
1.00000000001227e-06 	3.02458065419862 	-1.00613961606655e-16 	1.06471241893981 	0.00201354470475639 	167.989204319224
1.00000000001227e-06 	3.02885382577583 	-1.04083408558608e-16 	1.06471367891032 	0.000594523852376657 	658.207811831708
