/*--------------------------------*- C++ -*----------------------------------*\
  =========                 |
  \\      /  F ield         | OpenFOAM: The Open Source CFD Toolbox
   \\    /   O peration     | Website:  https://openfoam.org
    \\  /    A nd           | Version:  7
     \\/     M anipulation  |
\*---------------------------------------------------------------------------*/
FoamFile
{
    version     2.0;
    format      ascii;
    class       volSymmTensorField;
    location    "6000";
    object      bijDelta;
}
// * * * * * * * * * * * * * * * * * * * * * * * * * * * * * * * * * * * * * //

dimensions      [0 0 0 0 0 0 0];

internalField   nonuniform List<symmTensor> 
15600
(
(9.01515975369595e-05 -6.16642786135141e-07 -8.31853602158023e-25 -4.4219549187131e-05 -1.87153055490067e-23 -4.59182714906954e-05)
(0.000113546509565132 -4.36179877071851e-06 -8.65583189165466e-22 -5.57147792540395e-05 2.25465832229234e-23 -5.78143842612091e-05)
(6.91289683398332e-05 -1.14480827228144e-05 -4.64389389420197e-23 -3.33451807885466e-05 -1.22114305915917e-22 -3.57730545616191e-05)
(4.56412793741498e-06 -1.90440582409369e-06 1.1873998968416e-18 -1.98350540213489e-06 -2.80079459218035e-19 -2.5798485033259e-06)
(5.42455779543753e-06 -4.08081588551957e-06 -1.43086185772759e-18 -1.72822334960201e-06 6.65648651959694e-19 -3.69522576723749e-06)
(5.79327541849915e-06 -6.26283868299652e-06 4.82845778294584e-21 -9.53643890124382e-07 -2.7690144963092e-21 -4.83817992923609e-06)
(2.63509377921246e-06 -3.65847581711477e-06 2.29464474273314e-21 1.25602749685557e-08 -1.68807493143215e-21 -2.64685991679223e-06)
(1.61269906050351e-06 -2.63679470909536e-06 3.30509868037249e-20 2.46257035579283e-07 -3.45842003996189e-21 -1.85839852076903e-06)
(1.14074877429874e-06 -2.08524500525546e-06 -1.86332897472714e-19 3.11778160986112e-07 1.7631117795363e-19 -1.45209126433846e-06)
(1.05934148090742e-06 -1.99318190377274e-06 -2.59332786412243e-19 3.26603279509028e-07 1.95572208614264e-19 -1.38552906012838e-06)
(1.07022092391498e-06 -1.96661724168697e-06 -3.63760991420457e-20 3.00914316625534e-07 4.22519944105607e-21 -1.37072398222002e-06)
(1.1958090981209e-06 -2.11249803514161e-06 -5.5357854833682e-25 2.83164991617535e-07 4.16833360002187e-25 -1.47853048623222e-06)
(1.3743766680765e-06 -2.35413627873835e-06 2.06329755263716e-22 2.7947012769048e-07 -1.15362204616901e-23 -1.65335074093922e-06)
(1.66340326585375e-06 -2.78762716698251e-06 9.02211317880305e-21 3.00170151383174e-07 -6.90452523416413e-21 -1.9629844630026e-06)
(2.14427848079253e-06 -3.54036603176819e-06 -7.86746389465018e-21 3.54350218971229e-07 5.9489874389999e-21 -2.49787926104157e-06)
(2.91219029446693e-06 -4.75784794815483e-06 4.13560717757681e-23 4.50734432980605e-07 -8.19986011975723e-24 -3.36191605176444e-06)
(4.02425855334949e-06 -6.470520618042e-06 -2.91095253451356e-21 5.60826640598254e-07 1.47594496861919e-21 -4.58370994343966e-06)
(5.6103006742346e-06 -8.66033481682259e-06 -6.8925971825497e-21 5.67565735902693e-07 5.18697140028536e-21 -6.17601342081212e-06)
(7.8704456926706e-06 -1.13270486758689e-05 1.35457194450911e-20 3.13594499646394e-07 -7.92920709663189e-21 -8.18158547120352e-06)
(1.094381461477e-05 -1.42452935795721e-05 1.23068392319825e-20 -4.23263901361312e-07 -9.90758569328144e-21 -1.05173951793015e-05)
(1.48839330689103e-05 -1.69648342541055e-05 1.24693088584476e-21 -1.88947136166326e-06 -7.69240789855953e-22 -1.29905641482467e-05)
(1.98835601836906e-05 -1.91593775318369e-05 8.76228009566596e-22 -4.30804507793156e-06 7.24115072666211e-22 -1.55708433855714e-05)
(2.60240115940627e-05 -2.05976120920492e-05 -2.80328401429247e-20 -7.70641887687108e-06 1.05287393153645e-20 -1.83120985382123e-05)
(3.27956685686126e-05 -2.0684284001957e-05 -3.0656903889353e-20 -1.18397327158001e-05 1.19910688293656e-20 -2.09496503291613e-05)
(3.94969271894721e-05 -1.89379748753686e-05 -1.43401004687133e-20 -1.62644882666497e-05 6.19249288698037e-21 -2.32254705848131e-05)
(4.54640984341295e-05 -1.52799794490889e-05 8.04922709291388e-20 -2.04157620215953e-05 1.24979416680603e-19 -2.50408234142101e-05)
(5.00048097059246e-05 -9.73695917784636e-06 5.37412975741224e-19 -2.36895195876466e-05 8.04680492636278e-20 -2.63073971098442e-05)
(6.13190622533668e-05 -4.38991812242713e-06 7.68948493016922e-19 -2.98045682023253e-05 -2.01477993732041e-19 -3.15050415933178e-05)
(8.59646863159779e-05 -1.69648863128733e-06 2.42814785383752e-20 -4.2080534188537e-05 -1.90105067954209e-19 -4.38709895143252e-05)
(0.000107952002472223 -1.34935528093393e-06 -8.86013747946325e-29 -5.29172080423086e-05 6.59806751529117e-28 -5.5018287293013e-05)
(0.000120476835606786 -1.04484384535873e-06 -3.12057289722116e-20 -5.90628567473424e-05 2.33966425707538e-19 -6.13955583498882e-05)
(0.000127961731382622 -8.16912085609688e-07 1.42786922161984e-18 -6.2734989081317e-05 2.36801141282806e-19 -6.5207178191437e-05)
(0.000131265124247979 -6.46759911678998e-07 1.67411116746433e-18 -6.43557044253961e-05 -2.4912858805188e-19 -6.68893510103989e-05)
(0.000131499397452004 -4.97754047376216e-07 3.28018906090924e-20 -6.44709497346252e-05 -2.46658256744609e-19 -6.70083432039666e-05)
(0.000129213630097457 -3.68779551652749e-07 7.68992200740465e-23 -6.33504257119828e-05 -1.41261046740699e-25 -6.58434493751608e-05)
(0.000124949992983406 -2.5451569415086e-07 7.552063264451e-23 -6.12600651687846e-05 -7.58257301839726e-26 -6.36708246569087e-05)
(0.000119120562026529 -1.54837331881956e-07 -7.33512554193469e-23 -5.84019485598538e-05 2.75853871934952e-24 -6.07004015250236e-05)
(0.000112092688704535 -6.80780587835974e-08 2.55254932003792e-20 -5.49561964092797e-05 -2.21240116966898e-19 -5.71193547750712e-05)
(0.000104185858304049 5.7792374743425e-09 -1.48774747873878e-18 -5.10794918330038e-05 -2.20293748036615e-19 -5.30904377468488e-05)
(9.56897758387544e-05 6.70313893829778e-08 -1.56947408937467e-18 -4.69138855144095e-05 2.00641602808201e-19 -4.87612604832159e-05)
(8.68608466361851e-05 1.16102184218097e-07 -2.15863804545126e-20 -4.25850988335925e-05 1.98576250166439e-19 -4.42624677342655e-05)
(7.79244033362411e-05 1.53654642807547e-07 1.73274747807337e-23 -3.82036142961861e-05 -4.5200751442886e-24 -3.97088751861137e-05)
(6.90740222225241e-05 1.80580082474704e-07 -4.50373485368174e-23 -3.38643423918645e-05 -1.18848203100716e-25 -3.51991190388688e-05)
(6.04721602818432e-05 1.97920635545676e-07 7.01739039079414e-23 -2.96469346038226e-05 2.5700364100363e-25 -3.08159799594609e-05)
(5.22512660738153e-05 2.06832564140041e-07 -1.38452561529718e-23 -2.5616328438417e-05 -2.00643709632299e-24 -2.66269487518844e-05)
(4.45155038428771e-05 2.08508484471518e-07 -1.36944295148465e-20 -2.18235932364184e-05 1.59630855041829e-19 -2.26851043945192e-05)
(3.73430807648148e-05 2.04138327060554e-07 1.02743719003052e-18 -1.83070713493492e-05 1.56431471318421e-19 -1.90302997545731e-05)
(3.07888591118755e-05 1.94860164564361e-07 9.90143842681248e-19 -1.50936591580441e-05 -1.25116246009474e-19 -1.56904923353689e-05)
(2.48872211731859e-05 1.8173492383375e-07 9.85152458224127e-21 -1.2200211808443e-05 -1.21787787453802e-19 -1.26832040230018e-05)
(1.96549368863613e-05 1.65724283272629e-07 -1.31094068249736e-23 -9.63494934039001e-06 -7.39762650082173e-25 -1.00169821507865e-05)
(1.50939872708029e-05 1.47680758946263e-07 1.95991578229707e-23 -7.39884105363391e-06 -3.78734551901821e-25 -7.69283813492031e-06)
(1.11942106105874e-05 1.28343739713435e-07 -5.85949077243775e-21 -5.48690296536985e-06 8.38149362990795e-20 -5.70559579529399e-06)
(7.93573248224978e-06 1.08341426588837e-07 4.63470946718697e-19 -3.88938925968388e-06 7.88952209689415e-20 -4.04512956233118e-06)
(5.29113922799209e-06 8.81963138070274e-08 3.92252749664008e-19 -2.59285793603067e-06 -5.05122497394136e-20 -2.69747196943833e-06)
(3.22737751635285e-06 6.83336072960358e-08 3.70410474410926e-21 -1.58110218447339e-06 -4.57628052434069e-20 -1.64578154803666e-06)
(1.70738573819173e-06 4.90907155617599e-08 1.45022889504887e-26 -8.35950025995064e-07 -1.0070566986605e-25 -8.71174333758691e-07)
(6.91457041318721e-07 3.07500394133923e-08 -7.24455819192497e-28 -3.37931055995942e-07 3.36095668408587e-26 -3.53419948734499e-07)
(1.38365639127182e-07 1.34840289129183e-08 -1.1903176077822e-25 -6.68324766149296e-08 -3.54885639036904e-26 -7.15117068546299e-08)
(6.25870768013655e-09 -2.64028130674921e-09 7.2625100208544e-26 -2.13727153590414e-09 -3.45504579310244e-26 -4.12019996062587e-09)
(2.53388751400295e-07 -1.75774634388577e-08 -7.04272498277249e-26 -1.23375645838724e-07 -2.5917528257088e-26 -1.29974109429129e-07)
(8.38631561867728e-07 -3.12096356860656e-08 -2.63174971902078e-25 -4.10383457115289e-07 6.70039136143355e-26 -4.28119656010762e-07)
(1.72189927519706e-06 -4.34263777917352e-08 1.49641110715645e-24 -8.43507811721141e-07 -9.2891369697323e-26 -8.78127998729821e-07)
(2.86441634878344e-06 -5.42552381897403e-08 5.40591017853435e-25 -1.4037369659868e-06 -8.05227367979489e-26 -1.46024126660504e-06)
(4.22888609929693e-06 -6.37078199673151e-08 -2.39466975770094e-24 -2.07278378676163e-06 1.21367014378326e-25 -2.15545561118181e-06)
(5.77960846287729e-06 -7.18117425545139e-08 -9.83702385304181e-27 -2.83314512109916e-06 -1.9763640050057e-25 -2.94557957952805e-06)
(7.48247952368641e-06 -7.86064173058547e-08 -4.61784779420748e-24 -3.66810037765528e-06 2.73060846129563e-25 -3.81323506110431e-06)
(9.30497102947718e-06 -8.41371790866797e-08 5.15740420750483e-24 -4.56170151659398e-06 2.04252044254611e-25 -4.7418468165686e-06)
(1.1216044599877e-05 -8.84528553411568e-08 -1.37094316752088e-26 -5.49873099118748e-06 -2.7444448743019e-25 -5.71559875757711e-06)
(1.31860409739265e-05 -9.16028361861434e-08 0 -6.46464743126195e-06 0 -6.71937752780478e-06)
(1.51865250499703e-05 -9.36343038288616e-08 0 -7.44550967796836e-06 0 -7.7386935317584e-06)
(1.71901212021444e-05 -9.4591446568665e-08 0 -8.42789601675235e-06 0 -8.75959704346479e-06)
(1.91702952896792e-05 -9.45113472961437e-08 8.25101832072619e-21 -9.39879732991468e-06 1.19973694580513e-19 -9.76856709654918e-06)
(2.11011623275167e-05 -9.34265955910828e-08 7.89114460740011e-19 -1.03455227401786e-05 2.47695562003153e-19 -1.07524135406713e-05)
(2.29571844363588e-05 -9.13562675608442e-08 1.56609493374165e-18 -1.12555516102411e-05 -6.9763616402876e-21 -1.16981230382275e-05)
(2.47129927589671e-05 -8.83173362531913e-08 7.66648915072138e-19 -1.21164460656737e-05 -2.74697370136958e-19 -1.2592768484927e-05)
(2.63429200666534e-05 -8.43003843474107e-08 -1.12819544882019e-20 -1.29156220999131e-05 -1.39969980877708e-19 -1.34232705828271e-05)
(2.7820955082818e-05 -7.93069150343118e-08 3.58398520278197e-23 -1.36403267136691e-05 1.63487741377259e-24 -1.41763750313057e-05)
(2.9119871190584e-05 -7.32797726330438e-08 -1.01976929628866e-23 -1.4277211482644e-05 3.2266608097157e-26 -1.48382078004091e-05)
(3.02117000486815e-05 -6.62178355004037e-08 1.49414518619009e-20 -1.48125634991465e-05 1.52786075994171e-19 -1.53945177323336e-05)
(3.10657091695626e-05 -5.79799717130746e-08 8.93730739391387e-19 -1.52313160612651e-05 1.52315902100519e-19 -1.58296437402386e-05)
(3.16511450350712e-05 -4.86039837469126e-08 8.01473003302618e-19 -1.55183896527887e-05 -1.57621256308347e-19 -1.61279165234395e-05)
(3.19300025855911e-05 -3.79531705007762e-08 -1.63610585408578e-20 -1.56551516347135e-05 -1.56068461270089e-19 -1.62699694718881e-05)
(3.18731038203084e-05 -2.63599968701306e-08 3.88351516962367e-23 -1.56272914611794e-05 -1.93693591069769e-24 -1.62409395899751e-05)
(3.14369480026585e-05 -1.2760388832878e-08 -1.90985239578843e-23 -1.54134857469435e-05 1.58102386455802e-26 -1.60186561782538e-05)
(3.05826389046021e-05 2.12855214795043e-09 -2.0115110122377e-23 -1.49946505102174e-05 -6.5734017731459e-26 -1.55833129329586e-05)
(2.92430011642051e-05 2.04345327249171e-08 -1.33807446059717e-22 -1.43378603405949e-05 5.41523573610902e-24 -1.49006701754927e-05)
(2.73847802427103e-05 3.92863812626616e-08 2.05683247167767e-22 -1.3426775860289e-05 4.2784365080596e-25 -1.39538178184194e-05)
(2.49113265686722e-05 6.38324207401232e-08 -7.25392170100459e-23 -1.22140283168096e-05 -1.06353501615673e-23 -1.26934898240726e-05)
(2.18371354085014e-05 8.56192399389385e-08 -6.62820868666589e-23 -1.07066305027857e-05 9.53457173943707e-24 -1.11271664219408e-05)
(1.80197823740205e-05 1.17533389410744e-07 1.75156059277969e-22 -8.8347426509028e-06 4.38851767811102e-24 -9.18228476219293e-06)
(1.36823885553389e-05 1.38099831091225e-07 -7.43454705075023e-25 -6.70743021898364e-06 -5.26691147452929e-24 -6.97286626726815e-06)
(8.54733255571873e-06 1.65467601122958e-07 3.83118234030982e-23 -4.1857797431657e-06 8.58506229620779e-25 -4.3602446083501e-06)
(3.7703780249561e-06 2.91542706726166e-07 6.05221549020826e-27 -1.83394986687561e-06 1.48922166674628e-24 -1.93584734579552e-06)
(2.8492425815903e-06 5.09914849561852e-07 8.99541867730474e-23 -1.35807897661267e-06 -3.21037685518903e-22 -1.49071634534806e-06)
(3.57972685908575e-06 1.1995618959432e-06 -7.46451443311006e-21 -1.61136579185994e-06 -1.58922127482106e-21 -1.9677706769837e-06)
(4.45054120577914e-06 2.13139682327389e-06 7.24584045146577e-21 -1.83658730715941e-06 1.81467409935821e-21 -2.61316986925601e-06)
(5.68948506092111e-06 3.59887642546597e-06 -3.12234394342055e-20 -2.05360928981175e-06 -1.28836975511652e-20 -3.63478522648695e-06)
(7.09933798422961e-06 5.60932787774266e-06 -1.9736327988492e-20 -2.1102791428455e-06 -7.26260074644051e-21 -4.98756242301537e-06)
(8.7070146400356e-06 8.32252539775248e-06 1.83650625146107e-20 -1.92403305559481e-06 9.97707413437641e-21 -6.78094709686298e-06)
(1.08059214789376e-05 1.20803494478169e-05 -1.88431497725209e-20 -1.50372900699958e-06 -1.14698489754221e-20 -9.29940237221638e-06)
(1.33451241028439e-05 1.68615498968407e-05 -2.30686719478341e-22 -8.10765454478528e-07 1.91077499233608e-21 -1.2530599092682e-05)
(1.62873780044046e-05 2.25005595180533e-05 2.13052268896704e-20 9.09736359580906e-08 1.36791211354486e-20 -1.63734391173752e-05)
(1.96350917636107e-05 2.88515253295528e-05 -1.64437027048081e-20 1.10608079729174e-06 -1.30568011086985e-20 -2.07349514533556e-05)
(2.35529316658413e-05 3.5836046816482e-05 1.32173585229108e-21 2.04552101157876e-06 -2.96954702391564e-23 -2.55907746772168e-05)
(2.7351271496988e-05 4.23365212921282e-05 -1.92125699316195e-20 2.80494065954011e-06 -1.53277713426175e-20 -3.01471671018921e-05)
(3.02072586547753e-05 4.75159284526203e-05 -1.81418846093929e-21 3.5575551207382e-06 -1.20729987624413e-21 -3.37546863568646e-05)
(3.22835460209709e-05 5.194443101341e-05 -1.44435559262373e-21 4.50904449140052e-06 -9.42050476821221e-22 -3.67815549423317e-05)
(3.38296272747147e-05 5.60756052461838e-05 -1.06015875592947e-21 5.73002637805958e-06 -6.61755028447141e-22 -3.95477881297831e-05)
(3.51926688884432e-05 6.04492629966337e-05 -1.85475656805266e-20 7.26341126869913e-06 -1.32110594908846e-20 -4.24433458799507e-05)
(3.70236027506762e-05 6.61609431095826e-05 -1.46330211731402e-21 9.22818518655887e-06 4.23876563322897e-23 -4.62379151754062e-05)
(4.19818380036222e-05 7.66905755015235e-05 -1.20011485248093e-20 1.1476731935551e-05 -1.1033802319581e-20 -5.34425355750642e-05)
(5.32039952631259e-05 9.41876336338877e-05 -1.38215445802025e-20 1.26138715294387e-05 -1.12140438748794e-20 -6.57981253808092e-05)
(7.34771522653572e-05 0.000118705788737553 1.27265414444088e-20 1.03493306064769e-05 1.07477797962752e-20 -8.38013399555559e-05)
(0.000113249515332157 0.000155948366783987 2.55979755886208e-21 -1.50954191372383e-07 7.78564081071121e-22 -0.000113064638356999)
(0.000190062284583254 0.000206221597194017 -3.10790144089614e-20 -3.08955661653049e-05 -1.91428226800502e-20 -0.000159118977950518)
(0.000330430630921829 0.000249515908641877 1.58341532547125e-20 -0.000105341027960992 8.06344112570754e-21 -0.000225022089582624)
(0.000405949029854982 0.000178445125832039 1.51627381955636e-21 -0.000174519723130018 4.12882996951237e-22 -0.000231359891815928)
(0.000287904269403433 5.80082627287801e-05 1.01551573969045e-22 -0.000137862317084466 -2.22523480689442e-22 -0.000149996948733988)
(0.000133668236597881 6.75469315921264e-06 -8.15174742625015e-22 -6.56043360092529e-05 -3.20825227153943e-23 -6.80434855014694e-05)
(8.08368583869084e-05 -3.84437655914569e-07 -1.8783642102558e-25 -3.96510613679148e-05 1.5388799883285e-23 -4.11734437505415e-05)
(0.00175322863219067 -6.37054724003927e-06 7.48037753877003e-24 -0.000860927323996697 -1.48676135404094e-25 -0.000892033671328886)
(0.00168784329131717 -5.16616012597552e-05 2.42665117772836e-20 -0.000831685194659769 -4.32991586032059e-22 -0.000855901300587617)
(0.0012732932719669 -0.000154346900227679 6.61895674336456e-19 -0.000622391770923969 2.16804943478094e-18 -0.000650706269638898)
(0.000453174213211498 -0.000120593699894488 -3.00258727139337e-17 -0.000211209817713324 5.49182027128693e-18 -0.000241891820694485)
(2.9022051961663e-08 -2.58769258484806e-06 1.4848071529385e-18 3.59233782843994e-06 -4.76305223042239e-18 -3.62027368967562e-06)
(5.10548961186736e-05 -6.62885678991828e-05 9.19018918016264e-19 -2.71544585996019e-06 1.19118190580878e-19 -4.83249513234228e-05)
(3.24341767265476e-05 -5.00727781531818e-05 -4.22671787197623e-20 2.85530614319652e-06 3.11095626140495e-20 -3.52788981418288e-05)
(2.23409733257254e-05 -4.03897740542579e-05 -8.66505706227589e-19 5.67573611795143e-06 5.08851491865484e-20 -2.80083061115102e-05)
(1.76100569382954e-05 -3.5278055804709e-05 -1.19731996447726e-17 6.72707339527592e-06 9.46677482098079e-18 -2.43298306544071e-05)
(1.74280648292418e-05 -3.55436704364274e-05 -1.12092015069768e-17 7.13732618507094e-06 1.03143997115527e-17 -2.45580228706372e-05)
(1.91070417133957e-05 -3.72893264261627e-05 1.14340919426753e-18 6.78974836739928e-06 -1.38171854910591e-19 -2.58890225972674e-05)
(2.25224800087783e-05 -4.17636017655759e-05 6.15933785261051e-24 6.61524038773032e-06 -5.01084932887452e-24 -2.91289808283033e-05)
(2.72722033763688e-05 -4.85289373209052e-05 6.62332039254661e-21 6.71464600113788e-06 -4.21819657463947e-22 -3.39766553614966e-05)
(3.42197864563125e-05 -5.92591772802131e-05 -1.90980342075156e-19 7.39120927596985e-06 1.41556059016469e-19 -4.15985149297232e-05)
(4.44118137151682e-05 -7.57638383945028e-05 -1.1967968106515e-19 8.86476962382284e-06 8.83138897782609e-20 -5.32606035599452e-05)
(5.83442507908521e-05 -9.90008830643979e-05 1.12930451920054e-20 1.1317213977193e-05 -3.84537631793219e-22 -6.96405705074668e-05)
(7.64200050319884e-05 -0.000128122357235088 -1.41758507705286e-19 1.39505414701361e-05 1.23686555078426e-19 -9.03434407593224e-05)
(0.000100259518815956 -0.000161459784803018 3.87442740669869e-19 1.44461676939024e-05 -2.8780685535152e-19 -0.00011467128168487)
(0.0001313466192263 -0.000196776321265852 -2.39141289393433e-19 1.03642555803469e-05 1.62704916857026e-19 -0.000141668370045157)
(0.000170958114882675 -0.000230183074673785 -2.45264813934372e-19 -1.21393070747825e-06 1.89867505128976e-19 -0.000169693271102559)
(0.000221296419893035 -0.000257805428610972 3.12436027164971e-19 -2.33382485479774e-05 -2.19018634228953e-19 -0.000197898795768769)
(0.000283700416959968 -0.000275878189006083 -2.07296076667657e-19 -5.75999300596356e-05 6.79704090603445e-20 -0.000226032670317578)
(0.000355036253141172 -0.000280634786378041 2.73938289762151e-19 -0.000101771926106393 -1.05666608010018e-19 -0.000253188362929489)
(0.000431195171201864 -0.000268561939318224 5.4102399096086e-19 -0.000152485358644181 -1.97118938794976e-19 -0.00027862621633316)
(0.000507483886740494 -0.000237519044404622 2.41032753564069e-22 -0.000205354669496841 1.39678123674542e-20 -0.000302038596602608)
(0.000581728857266433 -0.000189137172236035 -1.29210993906534e-18 -0.000256398445532439 -1.90786729729117e-18 -0.000325232832126396)
(0.000668107051155409 -0.000126731046144881 -5.35623224473121e-17 -0.000310433207265918 4.96381416207466e-18 -0.000357566563192464)
(0.000720386888379641 -6.12094588258057e-05 -5.25934963126771e-17 -0.000345030346679284 5.93897692919836e-18 -0.000375243957254736)
(0.000758084420349195 -2.69417378761591e-05 -1.74910944363537e-19 -0.000368886721449433 2.10773900521087e-18 -0.000389080962937284)
(0.000786426238252783 -1.39992326478689e-05 1.4106167434991e-27 -0.000384785604480993 -1.31043560267539e-26 -0.000401520165675278)
(0.00078871093347075 -4.91569461864088e-06 2.56551272029548e-19 -0.000386248225329669 -2.11081985612221e-18 -0.000402341993471572)
(0.000770141662466998 9.81610115670148e-07 -5.82002210851546e-17 -0.000377324841811109 -1.99937852922177e-18 -0.000392698999173988)
(0.000738431515043106 5.07988042521963e-06 -5.84466656758909e-17 -0.000361840430438638 1.78520353673196e-18 -0.000376478129870033)
(0.000697414979646137 8.01239368564482e-06 -2.82162484387789e-19 -0.000341745950820286 1.95734371998268e-18 -0.000355562349453078)
(0.000649957524761075 1.00733975756072e-05 1.11311750618583e-23 -0.000318473647719773 1.30665431342895e-22 -0.000331384451763245)
(0.000598469029713385 1.14739143879764e-05 4.06779012431832e-23 -0.000293215643733609 -8.10483714607202e-23 -0.000305161828275523)
(0.000545463376197501 1.23627146700978e-05 -2.13199100708951e-23 -0.000267209628300445 -4.03606932647619e-23 -0.000278170288464573)
(0.000492069021112576 1.28317975755253e-05 -2.28300923285658e-19 -0.000241012258955473 1.56406608201284e-18 -0.000250981460188849)
(0.000439224951293194 1.29517600880368e-05 4.41644607526367e-17 -0.000215086031867996 2.67036168328834e-18 -0.000224071691195016)
(0.000387714607869543 1.27814636806052e-05 4.28017322476496e-17 -0.000189816124073513 -1.001323443709e-19 -0.000197839126122426)
(0.000338182278196616 1.23725067500684e-05 2.00202742974418e-19 -0.000165518996542521 -1.29704644680681e-18 -0.000172611493027324)
(0.000291153440358671 1.17708464997168e-05 -3.21120446640077e-22 -0.000142452536317924 -1.22387699287874e-23 -0.000148656302689805)
(0.000247048499605933 1.10180341642341e-05 4.06845910807e-22 -0.000120822879227577 4.47757347781435e-23 -0.000126187760264265)
(0.000206195427262851 1.01512129231876e-05 -3.76425782783258e-22 -0.000100790695225284 -4.01693470182373e-24 -0.000105373116940975)
(0.000168840423744436 9.203447383437e-06 2.60043869667995e-22 -8.24764547055839e-05 -2.24557396473405e-23 -8.63380650289428e-05)
(0.000135157531013315 8.20367245325395e-06 1.59913982412914e-19 -6.59651892352628e-05 -9.48862694791693e-19 -6.91715882262292e-05)
(0.000105257266812067 7.17689808762748e-06 -2.50430641003499e-17 -5.13107491721874e-05 -2.4791444341655e-18 -5.39303369207312e-05)
(7.91944544614988e-05 6.14433894741109e-06 -2.2453961290885e-17 -3.85396691479293e-05 -9.22471676901361e-19 -4.06425913167747e-05)
(5.69753750794925e-05 5.12368207165768e-06 -1.3197016872529e-19 -2.76546892489333e-05 6.23905963625983e-19 -2.93118913836994e-05)
(3.85642825390856e-05 4.12935920238079e-06 8.77530028297313e-23 -1.86379624306175e-05 1.8439647305678e-23 -1.99203434077757e-05)
(2.3889380085697e-05 3.17286754701033e-06 -6.96428128851155e-23 -1.14539921554864e-05 -1.15131678101878e-23 -1.24316580598057e-05)
(1.28482670963498e-05 2.26310108021147e-06 1.09658454288206e-19 -6.05230742644271e-06 -3.16339757014917e-19 -6.7939212896822e-06)
(5.31291032096387e-06 1.40668327076647e-06 -5.79426843319213e-18 -2.36990226491471e-06 -1.73999462276852e-18 -2.94212533017753e-06)
(1.13415672521996e-06 6.08290471037365e-07 -2.76933892270858e-18 -3.33448521712126e-07 -1.42825755008692e-18 -8.0046803907967e-07)
(1.45804310333721e-07 -1.29040261618706e-07 -9.14765158851365e-20 1.38709667349264e-07 -2.20857067650253e-20 -2.84428640557106e-07)
(2.16823662936586e-06 -8.03656669505614e-07 2.53339947975464e-25 -8.65220308900572e-07 4.11655936006861e-25 -1.3026254937345e-06)
(7.01167320209255e-06 -1.41492882075586e-06 2.5187531049989e-25 -3.25210981566175e-06 7.93025754328662e-25 -3.75843574294357e-06)
(1.44790499419195e-05 -1.96183801398417e-06 2.51890446328775e-23 -6.92535878742207e-06 -3.63706110333763e-24 -7.55142550028188e-06)
(2.43683521316632e-05 -2.44275264470676e-06 -3.0709157361775e-23 -1.17859450135411e-05 1.90276701598112e-24 -1.25786331507801e-05)
(3.64746259647921e-05 -2.85934579162413e-06 1.27933138027726e-23 -1.77331670712461e-05 -9.845143588969e-25 -1.87358375801407e-05)
(5.0591793810334e-05 -3.2165293712349e-06 -3.68347957780139e-25 -2.46657125623946e-05 2.27100869619214e-26 -2.59183049788188e-05)
(6.65142712763157e-05 -3.51718943118484e-06 -3.31362171554793e-23 -3.24828151073565e-05 4.78435797549099e-24 -3.40212487735876e-05)
(8.40382699423063e-05 -3.76276072252215e-06 6.20809364850705e-23 -4.10846331700237e-05 -6.17481055507933e-24 -4.29407532579538e-05)
(0.000102962413472118 -3.95559852840503e-06 -2.30762764953871e-24 -5.03724057183822e-05 -2.93654606633648e-24 -5.25742339061787e-05)
(0.000123088257257427 -4.09798346144653e-06 -2.73747119586588e-23 -6.0248844348012e-05 4.20764507405915e-24 -6.28205648551532e-05)
(0.000144220718366778 -4.19205404424487e-06 9.89261648596313e-23 -7.06183103293196e-05 -2.87135664926017e-24 -7.35803317303089e-05)
(0.000166168132619473 -4.23973223554033e-06 -1.71067172238143e-22 -8.13868424849324e-05 4.37266479692611e-24 -8.475586083336e-05)
(0.000188742120713662 -4.24268814647106e-06 6.99555011613243e-23 -9.24620909776648e-05 -1.58091400072131e-24 -9.62511515027227e-05)
(0.0002117572230311 -4.20229516977771e-06 -7.4823929223437e-23 -0.000103753136514021 1.49855669949396e-24 -0.000107971691770073)
(0.000235030299062643 -4.1195836027438e-06 -1.64266565444078e-25 -0.000115170195198452 2.9182452114957e-27 -0.000119824153023201)
(0.000258379724528725 -3.99521146610007e-06 -8.24738329017802e-23 -0.000126624222671739 2.06780518694681e-23 -0.000131715983110178)
(0.000281624290187326 -3.82939093311745e-06 -1.48409184286532e-19 -0.000138026373966358 -1.68119533568322e-18 -0.000143554845460254)
(0.00030458192600839 -3.62188153707466e-06 -4.91759355804838e-17 -0.00014928737386818 -2.91852135914764e-18 -0.000155247973090378)
(0.000327067956739359 -3.37184180998937e-06 -1.00974514373811e-16 -0.00016031666295359 1.06016570996317e-18 -0.00016670127840071)
(0.000348893280080822 -3.07789529217901e-06 -5.16384987458035e-17 -0.000171021494894754 4.2494006300824e-18 -0.000177818434320685)
(0.000369861628967804 -2.737778259187e-06 1.81481232846403e-19 -0.00018130560062092 1.95308734962502e-18 -0.00018849947284948)
(0.000389767138270328 -2.34865618983282e-06 -8.56362903675973e-22 -0.000191067971465114 7.82923668737204e-23 -0.000198639568974739)
(0.000408389797269425 -1.90620909408475e-06 4.5641035866719e-22 -0.000200200651373506 2.28072666155514e-23 -0.000208126701641)
(0.000425492530098527 -1.40575120684814e-06 -2.26295154382013e-19 -0.000208587251183128 -2.15022502502009e-18 -0.000216840220343439)
(0.000440813215551973 -8.39877032654108e-07 -5.95547529441205e-17 -0.00021609908026622 -2.0758289110061e-18 -0.000224646734525319)
(0.000454062462187218 -2.01714960971739e-07 -5.95756885108252e-17 -0.000222594064591914 2.29186842963538e-18 -0.000231398970961352)
(0.000464760995081413 5.18946909332235e-07 2.46559118092574e-19 -0.000227837010823335 2.28935817993596e-18 -0.000236852921275397)
(0.000472299612163278 1.32612932604494e-06 -1.95668515732004e-22 -0.000231528177756339 2.88828814873143e-23 -0.000240699217420015)
(0.000476357985172432 2.24562820923422e-06 1.48673444073667e-21 -0.000233509712735576 -5.24583475639142e-23 -0.000242775432523108)
(0.000476545351272575 3.28829855205125e-06 -1.32257825694804e-21 -0.000233588406910064 -1.23814808272957e-22 -0.000242884071853704)
(0.000472136682891124 4.50402187651588e-06 1.43266872956299e-21 -0.000231407639427912 1.29509960478046e-22 -0.000240656839191028)
(0.000462423602430429 5.88311557447234e-06 -3.4101838021396e-21 -0.000226615820733553 1.80781046909879e-23 -0.000235737053508005)
(0.000446204838997595 7.52652407578348e-06 1.98365446173987e-21 -0.000218620665052685 -2.67574404620974e-23 -0.000227515912345047)
(0.000422532554189587 9.36540573464655e-06 1.97391866934129e-21 -0.000206945776316972 1.01950597572012e-22 -0.000215522114771874)
(0.000389302975942269 1.16173594350242e-05 -3.23850427191814e-21 -0.00019054504452852 -9.15921770583185e-23 -0.000198698315957416)
(0.000345036755268969 1.40722116873676e-05 6.64016620729727e-25 -0.00016865643708562 5.38325333698575e-24 -0.000176327414668597)
(0.000285908633561556 1.68555610061649e-05 3.80578953489278e-23 -0.000139172439158587 2.22743548784829e-24 -0.000146692182347059)
(0.000225973858109853 2.40500309976555e-05 1.59738050282472e-20 -0.000108839596404637 1.32063778213598e-21 -0.000117099128453355)
(0.000196770761394968 3.60555490981705e-05 1.23725535127637e-19 -9.28531835420261e-05 1.52826816995733e-20 -0.000103886408813394)
(0.000183238865957891 5.4331242737733e-05 2.56189879363234e-19 -8.28975517026805e-05 6.04105454181486e-20 -0.000100311217880209)
(0.000182239801737667 7.55142852612544e-05 -8.59542863156688e-20 -7.7343141072309e-05 -4.56264305737581e-20 -0.000104865197959699)
(0.000183500008227901 0.000100368582632412 4.63522748071097e-19 -7.04390044767009e-05 1.43750672823836e-19 -0.000113027092232379)
(0.000186764761960877 0.000128729301399112 4.2585829984382e-19 -6.18641342507641e-05 1.97015834205608e-19 -0.000124863165014339)
(0.000190745213343088 0.000161182676657416 -4.19617085309853e-19 -5.04902976470988e-05 -2.02763683233248e-19 -0.000140212847634893)
(0.000197232991709853 0.000199325516416378 4.17035857558894e-19 -3.67228691921014e-05 2.12112117180436e-19 -0.000160461979109678)
(0.000207572177563198 0.000244122512375452 -3.88395171686793e-19 -2.10577814813735e-05 -2.38993489105692e-19 -0.000186458452951626)
(0.000222807615461392 0.000295396119594328 -3.62245248218317e-19 -4.56072134825763e-06 -2.40278464572236e-19 -0.000218181433137095)
(0.000242698794398286 0.000352465379704307 1.49929387688172e-19 1.22351734841224e-05 1.06967688364433e-19 -0.000254857502985024)
(0.000268581952171497 0.000415114766152469 -1.83703726424447e-19 2.78542495069702e-05 -1.17752065647279e-19 -0.00029634728860058)
(0.000299219935152386 0.000479856642803878 3.11914559081221e-19 4.11971580435705e-05 2.509524467699e-19 -0.000340314988488939)