/*--------------------------------*- C++ -*----------------------------------*\
  =========                 |
  \\      /  F ield         | OpenFOAM: The Open Source CFD Toolbox
   \\    /   O peration     | Website:  https://openfoam.org
    \\  /    A nd           | Version:  7
     \\/     M anipulation  |
\*---------------------------------------------------------------------------*/
FoamFile
{
    version     2.0;
    format      ascii;
    class       volScalarField;
    location    "6000";
    object      epsilon;
}
// * * * * * * * * * * * * * * * * * * * * * * * * * * * * * * * * * * * * * //

dimensions      [0 2 -3 0 0 0 0];

internalField   nonuniform List<scalar> 
15600
(
0.631754247129886
0.576232029902883
0.33979100110312
0.142644353465555
0.0403668670926765
0.0293052192690003
0.0310088838944448
0.0230544284778786
0.0172112546835316
0.0139107811246459
0.0116848716826515
0.0104097233786361
0.00996082624410075
0.0102181899316501
0.011209746895897
0.0129397395824253
0.0153926942251903
0.0183699971427057
0.0218415864196349
0.0257370807056325
0.0298725342758749
0.0340288503994386
0.0384766927959137
0.0434006428996124
0.0486046643419072
0.0540706440125442
0.0597945464657994
0.06591837413215
0.0826009993901182
0.105298718276814
0.124677061801992
0.141613775742906
0.157084071347556
0.17127586634719
0.184086981942036
0.195425640402792
0.205487932666676
0.214284175849217
0.221846220418977
0.228212233664277
0.233431515793615
0.237563296690566
0.240675924011896
0.242844042648501
0.244146596455924
0.244664215971408
0.244477357294266
0.24366444723676
0.242300620303127
0.240456676624909
0.238198416595095
0.235586244095804
0.232674986008677
0.229513886501314
0.226146755733503
0.22261220727686
0.218944051270681
0.215171227869967
0.211318387506685
0.207407388660419
0.20345550482831
0.199477449898741
0.19548583547893
0.191489825773949
0.18749653206593
0.183511146541237
0.179537045038804
0.175575967878644
0.171628147306034
0.167692397687226
0.163766208600879
0.15984573881952
0.155925887740296
0.152000146897613
0.148060705950631
0.144098031162462
0.140101166325568
0.136056711260337
0.131949734486136
0.127761435254154
0.123473701516958
0.119033796096801
0.11447679077741
0.109804134322371
0.10496036549303
0.0998516668330445
0.0944203064189254
0.088534103963476
0.0821283102350583
0.0750072172254485
0.0669161620503603
0.0567097766348816
0.0506189226263011
0.0556025420664627
0.0624546251346873
0.0718699946588603
0.0826164912095837
0.0952258881198547
0.110528846345942
0.129327077895514
0.149629546935994
0.171445420710786
0.194238844151897
0.217333557987001
0.236615779265458
0.25512234190865
0.275169543463146
0.298059046696423
0.326498332621908
0.367114170978489
0.431014582511665
0.510634989487428
0.610777797794158
0.749224140033974
0.918716735277137
1.03558598919286
0.862780675660823
0.669864567627956
0.545300939407589
0.59417083488205
2.29108289040084
2.10237624217098
1.41527977222307
0.604822150484869
0.159983559509388
0.107089958185576
0.112976992180963
0.0847637862564533
0.0632755415506831
0.0510369853939774
0.0428034837492945
0.0380811849382049
0.0363748321733067
0.0372859739043206
0.040924371199881
0.0473059344151011
0.0563160672240154
0.0672487842893234
0.079902799960458
0.0938466769452529
0.10827411628924
0.122575931583221
0.137517409911653
0.15335981584776
0.169672410531478
0.186861497318179
0.206900712137113
0.238666507770491
0.295499154757421
0.355710817565569
0.404005560707073
0.445287326492009
0.482091679424933
0.515332968653144
0.545097320238348
0.571169924204052
0.593836417944785
0.613287469142452
0.629729593108927
0.643355148365034
0.654357170439004
0.662929182581914
0.669266108878961
0.673561512764143
0.676005945296397
0.676784236648815
0.676073730955436
0.674042425514494
0.670847843733082
0.666636128583999
0.661541584608104
0.655686543536177
0.649181468428831
0.642125266154338
0.634605784983385
0.626700415320451
0.61847689619127
0.609993269172346
0.601298911907485
0.592437448994978
0.583444074651652
0.57434792457068
0.565173458056662
0.555938797306473
0.54665740442821
0.537338546202678
0.527987490560015
0.51860579250326
0.509191489795872
0.499739215888776
0.490240291636255
0.48068263501772
0.471050751834637
0.461325345070022
0.451483262706055
0.441496556713437
0.431332590486424
0.420951947483316
0.41030926224623
0.399348655670394
0.388010873569685
0.37620478284553
0.364108647530558
0.351653919853379
0.338607751954657
0.324722131780962
0.309771547977741
0.293419290208661
0.27531927943856
0.254986091185152
0.231418568805194
0.201239267761058
0.179132300907644
0.18776172292551
0.208826020887846
0.23840615309842
0.273183035002062
0.314595572235753
0.365241247646855
0.427374049824301
0.495867239210738
0.570239009710799
0.649054110417387
0.730125356248021
0.802216577276437
0.872790844392462
0.949185860666018
1.03623447025354
1.1429693942481
1.29110082039503
1.51591270159257
1.79697866538127
2.14598197983502
2.60535082202077
3.14521967092131
3.55963334996168
3.36505362720567
2.8699850824491
2.3432086421523
2.2683156618564
3.21228399829025
2.86315221722297
2.2477070619138
1.24824183732175
0.336664393646497
0.193480620679847
0.198265105035879
0.152875811213825
0.11578475782741
0.0935937715009378
0.0785166277812726
0.0696129379962428
0.0661346936702038
0.0673151460203923
0.0731772540916971
0.0834104742499215
0.0972756189421873
0.113013979694184
0.129606066662204
0.145853237864404
0.160561406930234
0.173345248361937
0.185633528835397
0.198493853971173
0.212500830148369
0.229272528315249
0.251569846316993
0.281624560425296
0.326330904689903
0.372663092480919
0.41102898999786
0.444516093998287
0.474243337329706
0.500206099764231
0.522526773877249
0.542435006738093
0.559945897188825
0.575196512142725
0.58831213205066
0.599411137083424
0.608613033893135
0.616038821295348
0.621811554703637
0.62605510342206
0.628893012029006
0.630446957406456
0.630835448748694
0.630172579262498
0.628567071513807
0.626121507072971
0.622931790896617
0.619086833198892
0.614668391691867
0.609751067499282
0.604402432259799
0.598683243520126
0.592647745110265
0.586343906691284
0.579813707473629
0.573094203954873
0.566217300385753
0.559210127131799
0.552095707444321
0.544892945562794
0.537616968474026
0.530279499356037
0.522889057224906
0.51545113560987
0.507968337974029
0.500440466457705
0.492864564954063
0.485234894941516
0.477542863211016
0.469776847332028
0.461921974061754
0.453959719475931
0.445867479879069
0.437617804457701
0.429177625469102
0.420506911984106
0.411557494730692
0.402289015042564
0.392394432781541
0.38198514450989
0.371034686098367
0.359367796787295
0.346780870054753
0.332977377963748
0.317611965829002
0.300101766932356
0.279843610242635
0.253545498893065
0.233259120640178
0.238016085948578
0.254827347602593
0.282321340615772
0.318114141721491
0.362556420861004
0.417667299361734
0.484944270264008
0.56177548644382
0.646719005730938
0.73867793751072
0.835807413045042
0.932587407221261
1.03278684918779
1.14303903136336
1.26953445053748
1.4207109672769
1.61332064871114
1.8691072917438
2.17190136042794
2.50986433461744
2.86958790163661
3.2070303745208
3.44346228808608
3.44976085873973
3.44144797582444
3.43448703318909
3.43916580972453
2.77053313600052
2.47618059474432
2.16399970886283
1.65742583563105
0.625974720556907
0.269594410869531
0.241743567510474
0.194292979373123
0.152166292914117
0.124091168876307
0.104266484767867
0.0919700652340636
0.0864218758695779
0.0865227368217706
0.0917390377415658
0.100904175760371
0.112371357680689
0.124070561026873
0.135112263393676
0.14492927052228
0.153349892211348
0.160898596555236
0.168963535461206
0.178506461385795
0.190309396231141
0.205828413816193
0.226762712646988
0.253730601555837
0.288245915612667
0.322500886475736
0.351513033030121
0.377103551154792
0.399744995711404
0.419322934078534
0.436594828256328
0.452092702325527
0.465811505806955
0.477840956788852
0.48825996472915
0.497147281690273
0.504584400862742
0.510655693516513
0.51544819659605
0.51905066811145
0.521552516124408
0.523042635455043
0.523608325031237
0.523334318551895
0.522301982973512
0.52058868149184
0.518267296621955
0.515405917627376
0.512067653031867
0.50831056109257
0.504187679565836
0.499747122159179
0.495032337791554
0.490082134026458
0.484930960764102
0.479609372780387
0.474144228249534
0.468558785770948
0.462873054912545
0.457104061090011
0.451265950485953
0.445370251077595
0.439426052110784
0.433440148219087
0.427417156603827
0.421359607131363
0.415267994483352
0.409140803673396
0.402974478825204
0.396763372282431
0.390499594309054
0.38417287132033
0.377770197555568
0.371275597042083
0.364669376492937
0.357927888103927
0.351021072291925
0.343929144524731
0.336494995794854
0.328582486791342
0.320287519684535
0.311536268900283
0.302200165146514
0.292100289097007
0.281003042170725
0.268538664154897
0.254331067979458
0.236399458322512
0.221351841897596
0.220826696123525
0.22993889417485
0.24844637715678
0.274925897384718
0.308947521585576
0.351387672556991
0.402871446348523
0.462339031019623
0.52856519613608
0.60072334430011
0.677602176120481
0.757345471630495
0.841391101175841
0.933576448563464
1.03842472201174
1.16139981293119
1.31081035846115
1.49357231914211
1.70049549418934
1.91722840433739
2.12262776724872
2.29614564071404
2.43647446652645
2.52488805227042
2.60646004310987
2.79319981727396
2.91582007695932
2.2237600848987
2.03108997436723
1.87204698366191
1.7644874583312
0.967115025685031
0.358058883022494
0.245312879942143
0.198290734840399
0.160229152927566
0.132018544174288
0.111166052788802
0.0977263928428311
0.0909741854578165
0.0897875903764452
0.0932472813942495
0.0998572367428842
0.107920915422329
0.115919681418308
0.123348376038647
0.130019646833081
0.136107053551562
0.142227771269491
0.149353151270068
0.158218815241334
0.169626658364847
0.184791201182613
0.204839161114261
0.229822280842778
0.258202451107685
0.284819078963095
0.307864384697504
0.328408904760045
0.346615612058938
0.362599110329541
0.376881651245107
0.38971954124089
0.401118038355283
0.411142661199987
0.419851208289516
0.427303593954081
0.433562689467279
0.438694472637792
0.442767545021296
0.445852365317714
0.448020287251015
0.449342610291213
0.449889659816651
0.449729986044431
0.448929681002931
0.447551838486359
0.44565613819463
0.443298562822204
0.440531219507452
0.437402256903656
0.433955863100141
0.430232347735942
0.42626831178694
0.422096601005308
0.417746628559545
0.413244583451667
0.408613704476113
0.403874325415644
0.399044106690474
0.394138311478346
0.389169874167459
0.384149595471949
0.379086297815779
0.373986950904387
0.36885677682822
0.363699336877943
0.358516589121084
0.353308932123845
0.348075202384086
0.342812671382035
0.337516956368044
0.332181971977733
0.326799692774184
0.321360081638927
0.315850544207316
0.310255975080079
0.304556636478313
0.298739925582515
0.292722949826318
0.286387216254812
0.279765017096628
0.272838320939319
0.265533423558779
0.257745039187321
0.24932251515322
0.240051950616901
0.229678880412957
0.217101681889688
0.205493281871402
0.202107164944258
0.20667142773793
0.219192687432251
0.238782888895905
0.264814321584732
0.297536881351349
0.337112243446373
0.382988291731322
0.434261328599436
0.49026060714089
0.550123794503208
0.613209108951391
0.680173544450536
0.753149924845767
0.835071703018976
0.929422864522565
1.04048546169416
1.16998879710815
1.3127668246234
1.4590551485113
1.59366902073313
1.70677967449673
1.81038117897563
1.92078498398127
2.01370926873193
2.16772027828897
2.28073906945898
1.81648719772477
1.69493776195075
1.60063345753146
1.69349797363725
1.22754125783802
0.482364643527807
0.2454404438603
0.187281694318414
0.153141993275031
0.12703566834379
0.107390042097436
0.0945685081405257
0.0878778963695357
0.0863103861965678
0.0888225394689792
0.0939155135435126
0.100079720073099
0.106218880373799
0.112011492874343
0.117415309252222
0.122704695960351
0.128448745251909
0.135369087023109
0.144087672914822
0.155368628094397
0.170201477283118
0.189315881654705
0.212254815600214
0.236322264349183
0.258133614132681
0.277387182797664
0.294689878448801
0.310095674844425
0.323795123896278
0.336113587505456
0.347192126841236
0.357043522810007
0.36571914294621
0.373265236454923
0.379730974915982
0.385168423101148
0.389632712371236
0.393181458918411
0.395874106233332
0.397771053868149
0.398932838501926
0.399419326363702
0.399289018404672
0.398598449878574
0.397401716748032
0.39575010623309
0.393691841021466
0.391271914767142
0.388532009064794
0.385510483488305
0.382242479811622
0.378759920220464
0.375091615602084
0.371263471091274
0.367298623121445
0.363217704489437
0.359038888447583
0.354778063946593
0.350449081655757
0.346063821670356
0.3416323505749
0.337163057817009
0.332662769353944
0.328136844577618
0.32358925955319
0.319022667600374
0.314438451009911
0.309836737051407
0.305216417992665
0.300575104304305
0.295909118954551
0.291213344152724
0.28648121628
0.281704350846025
0.276872667257821
0.27197279220051
0.266995959548566
0.261895412624754
0.256589240399005
0.25107446793467
0.245350020710608
0.239375656581718
0.233090556060351
0.22640006913724
0.219182963569463
0.211270172900293
0.202086083261048
0.1930247063021
0.188612225366498
0.190544406691909
0.199248019709267
0.214199048524622
0.234789122324958
0.260958278743704
0.292618381093464
0.329387888355634
0.370587211100738
0.415654422680602
0.463928756504639
0.51521978613898
0.569940856007097
0.629363162664518
0.695431239831979
0.770498641787071
0.856982664282311
0.954771347239451
1.06058684553899
1.16810482260407
1.26701802427361
1.35182969079719
1.43451263854225
1.54039264030588
1.6381209495528
1.75795653929506
1.83901048448348
1.53026792164355
1.44984936705727
1.38558795793429
1.55454363115296
1.35936043331616
0.633200363680697
0.260225759033229
0.177723701905824
0.144134568635298
0.119924844395174
0.101796318517413
0.0899821537223959
0.0837527776005696
0.082177098746696
0.0841894897936929
0.0883787526651369
0.0934290404527064
0.0985130032465139
0.103416143191041
0.108174942857784
0.113098877772529
0.118698630642243
0.125551861540753
0.134207734504062
0.145357129360133
0.159781842512387
0.17789586660197
0.198878355183951
0.219788727502892
0.238426643551808
0.255131086877932
0.270230362763269
0.283746871519807
0.295870242124217
0.306806535939907
0.316643140039644
0.3253966564574
0.333109295269522
0.339820094229724
0.345571316754185
0.350408038649824
0.354378323248493
0.357532601834165
0.359923080782083
0.361602936544107
0.362625578101604
0.363043915470397
0.362909733698015
0.362273149195732
0.361182181733911
0.35968241852241
0.35781677984939
0.355625367445321
0.353145385084613
0.350411147579693
0.347454135038395
0.344302963848731
0.340983560641651
0.337519287703461
0.333931057745964
0.330237573231026
0.326455380025634
0.322599013151474
0.318681210565574
0.314712986747503
0.310703767086035
0.30666151043405
0.302592814647976
0.298503008053985
0.294396229958524
0.290275493298619
0.28614274077177
0.281998873683947
0.277843785322774
0.273676344155617
0.269494412121423
0.265294752720587
0.261073059676619
0.256823710034065
0.252539911223383
0.248212562714838
0.243835559879218
0.239381337803815
0.234795846895581
0.230062931373507
0.225186276596742
0.220145613663253
0.214908402736841
0.20941858942309
0.203612603010263
0.197382079482923
0.190471523879181
0.183375440289128
0.17884955757935
0.179260996564691
0.185434401160373
0.197147281284117
0.213890434695741
0.235458302761856
0.261625236603007
0.292068797562996
0.326254146167411
0.363699994124497
0.403876117346701
0.446782094832038
0.492755623763712
0.542623976575944
0.597736458431566
0.659774028058914
0.730199464107978
0.808195916170013
0.891433060711069
0.975704411411525
1.05383626049005
1.12229785641476
1.19095785895282
1.28477829673849
1.38033852542339
1.4824610776188
1.54243463740361
1.32387434174895
1.26714934592598
1.21983044982337
1.40162659367746
1.41352438888722
0.788334810149074
0.294278505736271
0.174233415050967
0.137406140760578
0.114213980878208
0.0972441037844134
0.0862571324741995
0.0804380769969679
0.0788787745222338
0.0805214410531486
0.0840586729254313
0.0883379298262997
0.0927089285691013
0.0970294298788102
0.101384006224103
0.106089665684084
0.111604271944563
0.118413433882053
0.127005851724873
0.137983998269907
0.151945033966064
0.169056333475776
0.188289705831941
0.206838255301662
0.223274061204367
0.238176336486881
0.251706341194604
0.263879185385947
0.274858244501621
0.284778954282009
0.293701153256816
0.301642999684332
0.308640380315552
0.314727439347207
0.319941670400413
0.324323334313268
0.327915616939402
0.330763994726956
0.33291567760123
0.334418849461831
0.335321981299495
0.335673150761648
0.335519461130807
0.334906536502576
0.333878125307647
0.332475788367922
0.33073868097665
0.328703411995753
0.326403972468805
0.323871768346825
0.321135581348735
0.318221629401895
0.315153704059205
0.311953270768053
0.308639574731774
0.305229853808135
0.301739403103793
0.298181704735333
0.294568614805998
0.290910443308476
0.2872160747194
0.283493080822807
0.27974782067243
0.275985528501376
0.272210392448704
0.268425618943085
0.264633491852672
0.260835410775796
0.257031933402307
0.253222780698574
0.249406870955634
0.245582273170059
0.241746256609646
0.237895139274293
0.234024441750117
0.230128108042874
0.226202110703749
0.222229982457388
0.218176549467529
0.21402398460349
0.209776625108572
0.205426741592769
0.200960677947498
0.196349755706477
0.191568318275988
0.186552583095404
0.181244043355107
0.175685656082063
0.171466302307774
0.171029420905224
0.175478334417468
0.184844672208037
0.198746877499368
0.21692311069496
0.239075113413131
0.264900883397711
0.293959715429866
0.325831294860762
0.360077022481229
0.396781747194729
0.436260179793864
0.479099826836044
0.526282409206255
0.579063914484473
0.638370133217346
0.70312004950157
0.771517895786109
0.840661421646662
0.905365151938914
0.963065394449421
1.02153159330661
1.10266618273757
1.19149328537998
1.28302777835639
1.33221740018124
1.16835554356758
1.12625176416337
1.09076077772022
1.2559064871342
1.41278821234887
0.933090304462293
0.350306138915585
0.177911392257907
0.133643627175984
0.110413249984593
0.0941325372145212
0.0836852047031453
0.0781204197615035
0.0765111503411838
0.0778114250099452
0.0808118743071381
0.0844922307135431
0.0883236575485176
0.0922147514508262
0.0962791547440644
0.100827822377769
0.106273012756178
0.113034825270249
0.121545792017015
0.132317193346322
0.145787943224806
0.161941392913052
0.179661876600109
0.196412581695116
0.211261636163825
0.224843500504595
0.237219338207217
0.24840078532894
0.258522491664723
0.267676346122957
0.275906791278978
0.283232295667144
0.289684183244372
0.295293099350682
0.300093106058542
0.304121029413776
0.307416586776603
0.310021745042164
0.311980179596165
0.31333654398813
0.314135813193593
0.31442263652262
0.314240785552926
0.313632675503007
0.312638990577582
0.311298389025222
0.309647297808863
0.307719780420601
0.305547486174857
0.30315965866658
0.300583077813714
0.297842174630375
0.294959130206926
0.291953969049002
0.288844661964017
0.285647316572039
0.2823762519959
0.279044120014171
0.275662071440725
0.272239841541919
0.268785862261024
0.265307368397435
0.261810493811075
0.258300357148634
0.254781139610135
0.251256150979355
0.247727891226771
0.244198096112202
0.24066778628357
0.237137289127402
0.233606284381784
0.230073791664435
0.226538235143187
0.222997363691877
0.219448408418693
0.215887575572118
0.212312542344326
0.208713737704856
0.205068720030155
0.201362690515013
0.197599961988727
0.193781021716877
0.189905271120381
0.185963876721841
0.181957110514196
0.17785492509551
0.173719348938907
0.16937448295175
0.165639205214667
0.164773804944681
0.168033623476941
0.175654457278598
0.18738722738655
0.202964605437881
0.222056152206026
0.244368010968055
0.269522443932137
0.297146026011202
0.326868035951582
0.358811609257193
0.393283899537249
0.430737005556069
0.471918477572373
0.517801969221618
0.568989084178285
0.624327151387672
0.682361571807281
0.741017364193998
0.796389634021495
0.84639348505297
0.897038975882846
0.966740082721936
1.04698005372253
1.13016263969257
1.17399143760334
1.04617104095316
1.01390001530124
0.987907377093421
1.12542342950889
1.37474746283603
1.05271839963506
0.429695451954654
0.189671199496793
0.132881888424872
0.108381365244517
0.0923192951731576
0.0821326443221542
0.0766601844114912
0.0749222934864757
0.0758780789397782
0.0784032559201368
0.0815836769945693
0.0849762439878714
0.0885253999997675
0.0923611361980954
0.0967814483646689
0.10215921139166
0.108863571013069
0.117273494683729
0.127813023017342
0.140789520293375
0.156055664093687
0.172488301639926
0.187851750514432
0.201526975003383
0.214118555933907
0.225627337038092
0.236060923021502
0.245528421347781
0.254093870465645
0.261792390415445
0.268642099584588
0.274670924094529
0.279906927066051
0.284381650525136
0.288129435817321
0.291187511491204
0.293595344524145
0.295394101202772
0.296625932964069
0.297333335290113
0.297558520949632
0.297342885583011
0.296726546036146
0.29574798064903
0.294443746148612
0.292848282031655
0.290993787419775
0.28891019660336
0.286625118472745
0.284163849901422
0.28154947277848
0.278802942292103
0.275943177825834
0.272987165838831
0.269950132876472
0.266845629155082
0.263685645446448
0.260480764297173
0.257240250132249
0.253972156592948
0.250683428408786
0.247379995228954
0.24406685619764
0.24074815744583
0.237427259794753
0.234106802592195
0.23078875522977
0.227474471698215
0.224164725444058
0.220859764151026
0.217559323549508
0.214262704182961
0.210968746216852
0.207675991217008
0.204382378611295
0.201087015685802
0.197784881974764
0.194462352728316
0.191108950464201
0.187729493605857
0.184330066804467
0.180919322489751
0.177503014205214
0.174099574938714
0.170704982814109
0.167453095233321
0.164072302428033
0.16087818903884
0.159850129099438
0.162292356934085
0.168593902644115
0.178630330804326
0.19215784726374
0.208840162003173
0.228389520574823
0.250472007896839
0.274750972535871
0.300907948897341
0.329081746124022
0.359575170285969
0.392760881562721
0.429233156615114
0.469770640727704
0.514769703288407
0.563097963496737
0.613544505341449
0.66457320231876
0.713111006147036
0.757284914253617
0.801678850601273
0.861561662538856
0.932882259689968
1.00840404398914
1.04916288074005
0.946838344934959
0.92168623364268
0.903728430273322
1.01198375357985
1.31268887295416
1.13989206101922
0.529528450523399
0.210968234111477
0.135261483726338
0.107959700638518
0.0916265373991767
0.0814396049003363
0.0759073972333416
0.0739647535151529
0.0745634059405354
0.076648364302447
0.0793899817712868
0.0824065656634445
0.0856672601136083
0.0893095940920014
0.0936150752843512
0.0989220715952366
0.105557435825982
0.113849323901788
0.124141948304915
0.136636162862402
0.151096944736869
0.166442547993473
0.180725186836227
0.193517423552083
0.205356435648951
0.216206378982925
0.226069682927188
0.235033968186892
0.243144819786708
0.250431237973812
0.256910651887857
0.262608397235229
0.267550599885204
0.271766944666406
0.275289985461596
0.278155186858309
0.280400265090839
0.282064639993234
0.283188726333932
0.283813297501939
0.283978869150899
0.283725174113897
0.283090710716132
0.282112393020002
0.280825275633657
0.279262365653944
0.27745451704699
0.275430396964305
0.273216401677662
0.270836726353019
0.268313435800306
0.265666552099744
0.262914145935299
0.260072441218865
0.257155975153731
0.254177689678132
0.251149046820369
0.248080169207592
0.244979934273313
0.241856079059317
0.238715299576595
0.235563343364819
0.232405093726558
0.229244647514287
0.226085384589192
0.222930033829299
0.219780729615904
0.216639071056833
0.213506167258952
0.210382699765241
0.207268956976731
0.204164921216972
0.201070285778737
0.19798462231495
0.194907228956876
0.191838424889513
0.188776347057597
0.185713620503177
0.182644109337007
0.179573695960527
0.176512480182296
0.173475788469099
0.170480172581699
0.167556929157814
0.164722286755449
0.162150451019779
0.15953955972647
0.156883270824419
0.155860411978625
0.157749973070823
0.163046324406368
0.171734793464319
0.183610766450959
0.198349490678786
0.21567120346559
0.235274047235539
0.256850879769726
0.280124665196174
0.30523861049958
0.332490648442377
0.3622053151805
0.394874321753032
0.431137549723111
0.471258105991001
0.514170886601109
0.558855218148225
0.604130400117048
0.647458967086767
0.687022217887619
0.72625033784115
0.777798231596503
0.840604290053637
0.908823632083394
0.947290621779383
0.863918038059039
0.844197126412757
0.833025097497746
0.914937478880514
1.23563307980096
1.19327501463539
0.642112048318213
0.243916922741076
0.141218004182695
0.109106311021008
0.0919408700432719
0.0814948120774932
0.0757559075998412
0.0735336948937663
0.0737557431448445
0.0754189585426076
0.0777598027172998
0.0804403845022369
0.0834458720621793
0.0869150142825872
0.0911110385996347
0.0963415300938932
0.102896708363444
0.111057228405268
0.121096438055717
0.133131018101756
0.146871421429712
0.161304530654402
0.174740480031462
0.186863139871769
0.198127906847645
0.208476218178117
0.217904416498577
0.226482226536478
0.234242530230331
0.241209960694544
0.247401090651567
0.252839245041568
0.257549091809893
0.261558966997249
0.264900176748444
0.267606986809517
0.269715947808921
0.271265329359954
0.272294407801745
0.272842826137287
0.2729499802013
0.27265449653736
0.271993785217546
0.271003696389582
0.269718249934218
0.268169454477217
0.266387227463575
0.264399304318267
0.262231213849695
0.259906341714142
0.257445996002306
0.254869495827249
0.252194265040787
0.249435939781611
0.246608519534985
0.243724465695635
0.240794817248408
0.237829324139176
0.234836545271264
0.231823952437331
0.228798028578254
0.225764359977054
0.22272772081321
0.219692151726984
0.216661031146703
0.213637143484134
0.210622739937736
0.207619601867016
0.204629094603973
0.201652236507443
0.198689749830954
0.195742156852374
0.192809829979853
0.189893165939706
0.186992546810618
0.184109323452143
0.181243917179392
0.178393474990905
0.175555766456173
0.172738090949616
0.169953576306717
0.167222428502454
0.164569200327991
0.162034297878025
0.15964968884032
0.157609475675225
0.155615805038068
0.153464328965967
0.152550201149791
0.15407887101904
0.15860789572363
0.166213972578639
0.176738618210125
0.189879876331413
0.2053690977744
0.222929273202517
0.242277552513281
0.263170550724503
0.285750259679974
0.310308435013177
0.337139670882424
0.366665820676301
0.399425824718979
0.435596300356685
0.474204782578955
0.514388096837606
0.555197304138565
0.594426990699031
0.63021517867886
0.66505314517552
0.709509660831411
0.764507934925789
0.825790324340987
0.862115183985458
0.79328872085116
0.777850552208236
0.772260234811237
0.83268671250854
1.14971237006828
1.2152566906424
0.756000123037963
0.291255570670617
0.151558110652391
0.11192472945212
0.093224748593813
0.0822401924470749
0.076143544158506
0.0735635740236568
0.0733822577287189
0.0746295129319203
0.0765914665256701
0.0789604569707031
0.081730603800125
0.0850371455564654
0.0891241209402506
0.0942711757144503
0.100735980550435
0.108755501398523
0.118541604116507
0.130146021750556
0.143249444193566
0.156920330364163
0.169692424157126
0.181307720521093
0.192136730847053
0.202106284270419
0.211206035852399
0.219490648142637
0.226983855872886
0.233706901078907
0.239675421116196
0.244911157846138
0.249437694125718
0.253282425324154
0.256475847576928
0.259051489138091
0.2610452132644
0.262494626601575
0.263438355293939
0.263915394093128
0.263964488558972
0.263623610861211
0.262929512655938
0.261917385277491
0.260620591737317
0.259070500295355
0.257296400566299
0.255325388130967
0.25318239430799
0.250890231156391
0.248469660201992
0.245939483498265
0.243316641184947
0.240616322877356
0.237852113059296
0.2350360963254
0.23217897473931
0.229290196932246
0.226378059800162
0.223449812807873
0.220511756277183
0.217569333983606
0.214627218590938
0.211689391410182
0.208759215727136
0.205839507240465
0.202932598727653
0.20004040721479
0.197164494941443
0.194306144268855
0.191466421877316
0.188646283010784
0.185846647755661
0.183068582763972
0.180313346438773
0.177583169341456
0.174880183105823
0.172204865840241
0.169558328760699
0.166949439705441
0.164393703602989
0.161914923804984
0.159543549863216
0.157326358936108
0.155307426635544
0.1536875135558
0.152189907320497
0.150496848278683
0.149751977763662
0.151059293773669
0.155004406406488
0.161735880882852
0.171142515021998
0.182951964589569
0.19690982711245
0.212759544581682
0.23023880543262
0.249132144401491
0.269577713364499
0.291860009376152
0.316254612920907
0.343135143635198
0.372966082979701
0.405870117221836
0.440981723526958
0.477571840000905
0.514834474242588
0.550751430300714
0.583355777000549
0.614369411448948
0.652747182825265
0.700729334116575
0.755506964044263
0.789626349996255
0.732194629972371
0.720198280528383
0.719030851045326
0.763260061573282
1.05987579153069
1.21032604319233
0.861484736387468
0.355302074688681
0.167532770921722
0.116684231006426
0.0955158062528075
0.0836650917732874
0.077044853456305
0.0740201036633087
0.0733995358841405
0.0742252953516956
0.07581756936813
0.0778876912599759
0.0804326565232947
0.0835804415594558
0.0875554034789567
0.0926114368306357
0.0989768843069806
0.10684914557966
0.11638773211581
0.12759552556993
0.140141382979579
0.153179266404107
0.165433297677196
0.176668424796519
0.187172520159891
0.19686231681852
0.205720410181192
0.213788504142612
0.221083377128489
0.227623416918574
0.233423287732086
0.238503470925339
0.242886766014569
0.2465999689034
0.249673136015079
0.252139450811685
0.254034496517207
0.255395631399954
0.256261245875958
0.256670094626426
0.25666066928893
0.256270668089591
0.255536545011578
0.254493171779702
0.253173571052251
0.251608773236694
0.249827681668633
0.247857010086112
0.245721310376783
0.243443016432463
0.241042517149277
0.238538251290117
0.235946810074911
0.233283053225399
0.230560251505273
0.227790198466116
0.224983330546632
0.222148854215462
0.219294851458401
0.216428385430898
0.213555599706996
0.210681811946963
0.207811600702318
0.204948886739506
0.202097008512192
0.199258794919844
0.196436633520778
0.193632541243785
0.190848231468179
0.188085194193554