/*--------------------------------*- C++ -*----------------------------------*\
  =========                 |
  \\      /  F ield         | OpenFOAM: The Open Source CFD Toolbox
   \\    /   O peration     | Website:  https://openfoam.org
    \\  /    A nd           | Version:  7
     \\/     M anipulation  |
\*---------------------------------------------------------------------------*/
FoamFile
{
    version     2.0;
    format      ascii;
    class       volScalarField;
    location    "6000";
    object      kDeficit;
}
// * * * * * * * * * * * * * * * * * * * * * * * * * * * * * * * * * * * * * //

dimensions      [0 2 -3 0 0 0 0];

internalField   nonuniform List<scalar> 
15600
(
0.0271654326265851
0.024777977285824
0.0146110130474341
0.00613370719901886
0.00173577528498509
0.00126012442856701
0.00133338200746113
0.000991340424548779
0.000740083951391858
0.000598163588359775
0.000502449482354016
0.000447618105281352
0.000428315528496332
0.000439382167060953
0.000482019116523572
0.00055640880204429
0.000661885851683182
0.000789909877136346
0.0009391882160443
0.0011066944703422
0.00128451897386262
0.00146324056717586
0.00165449779022429
0.00186622764468333
0.00209000056670201
0.0023250376925394
0.00257116549802938
0.00283449008768245
0.00355184297377508
0.00452784488590299
0.00536111365748564
0.00608939235694494
0.0067546150679449
0.00736486225292918
0.00791574022350755
0.00840330253732004
0.00883598110466707
0.00921421956151632
0.00953938747801601
0.00981312604756389
0.0100375551791254
0.0102152217576943
0.0103490647325115
0.0104422938338855
0.0104983036476047
0.0105205612867705
0.0105125263636534
0.0104775712311807
0.0104189266730345
0.0103396370948711
0.0102425319135891
0.0101302084961196
0.0100050243983731
0.00986909711955652
0.00972431049654064
0.00957232491290498
0.00941459420463927
0.00925236279840857
0.00908669066278746
0.00891851771239802
0.00874858670761734
0.00857753034564586
0.00840589092559401
0.00823406250827981
0.00806235087883499
0.00789097930127318
0.00772009293666855
0.0075497666187817
0.00738001033415947
0.00721077310055072
0.00704194696983781
0.00687336676923937
0.00670481317283274
0.00653600631659737
0.00636661035587714
0.00619621533998587
0.00602435015199944
0.00585043858419448
0.00567383858290384
0.00549374171592862
0.0053093691652292
0.00511845323216245
0.00492250200342862
0.00472157777586195
0.00451329571620027
0.00429362167382091
0.00406007317601379
0.00380696647042947
0.0035315173401075
0.00322531034069428
0.00287739496816549
0.00243852039529991
0.00217661367293095
0.0023909093088579
0.00268554888079155
0.00309040977033099
0.0035525091220121
0.00409471318915375
0.00475274039287549
0.00556106434950711
0.00643407051824772
0.00737215309056378
0.00835227029853158
0.00934534299344105
0.0101744785084147
0.0109702607020719
0.0118322903689153
0.0128165390079462
0.014039428302742
0.015785909352075
0.0185336270480016
0.0219573045479594
0.0262634453051488
0.0322166380214609
0.0395048196169169
0.0445301975352928
0.0370995690534154
0.0288041764080021
0.0234479403945263
0.0255493458999281
0.0985165642872363
0.0904021784133523
0.0608570302055919
0.0260073524708494
0.0068792930589037
0.00460486820197975
0.0048580106637814
0.00364484280902749
0.00272084828667937
0.00219459037194103
0.00184054980121966
0.00163749095234281
0.00156411778345219
0.00160329687788579
0.00175974796159488
0.00203415517984935
0.00242159089063266
0.0028916977244409
0.00343582039829969
0.00403540710864587
0.00465578700043732
0.00527076505807849
0.00591324862620106
0.00659447208145369
0.00729591365285357
0.00803504438468171
0.00889673062189588
0.0102626598341311
0.0127064636545691
0.0152955651553194
0.0173722391104041
0.0191473550391564
0.0207299422152721
0.0221593176520852
0.023439184770249
0.0245603067407742
0.0255349659716257
0.0263713611731255
0.0270783725036839
0.0276642713796965
0.0281373583288772
0.0285059548510223
0.0287784426817953
0.0289631450488581
0.0290682556477451
0.029101722175899
0.0290711704310837
0.0289838242971233
0.0288464572805225
0.0286653535291119
0.0284462881381485
0.0281945213720556
0.0279148031424397
0.0276113864446365
0.0272880487542856
0.0269481178587794
0.0265945065362246
0.0262297105744109
0.0258558532120218
0.0254748103067841
0.025088095210021
0.0246969607565392
0.0243024586964365
0.0239053682841784
0.023506268390413
0.0231055574867151
0.0227034620940806
0.0223000490776402
0.0218952340612225
0.0214887862832174
0.021080332540359
0.020669353305762
0.0202551823288894
0.0198369898380109
0.0194137802963604
0.0189843519386778
0.0185473013909162
0.0181009337417826
0.0176432982765879
0.017171992193827
0.0166844675634964
0.0161768056623578
0.015656671843814
0.0151211185536953
0.0145601333340503
0.0139630516665813
0.0133201765630429
0.0126170294789724
0.0118387290158581
0.0109644019209615
0.00995099845862334
0.00865328851372551
0.00770268893902867
0.00807375408579693
0.00897951889817739
0.010251464583232
0.0117468705050887
0.0135276096061374
0.0157053736488148
0.0183770841424449
0.0213222912860617
0.0245202774175644
0.0279093267479476
0.0313953903186649
0.0344953128228868
0.0375300063088759
0.0408149920086388
0.0445580822209024
0.0491476839526685
0.0555173352769863
0.0651842461684804
0.0772700826113948
0.0922772251329059
0.112030085346893
0.135244445849617
0.153064234048352
0.144697305969844
0.123409358545311
0.100757971612549
0.0975375734598253
0.138128211926481
0.123115545340588
0.0966514036622936
0.0536743990048353
0.0144765689267994
0.00831966668923343
0.0085253995165428
0.00657365988219448
0.00497874458657865
0.00402453217454033
0.00337621499459472
0.00299335633383844
0.00284379182781876
0.00289455127887687
0.00314662192594298
0.00358665039274662
0.00418285161451405
0.00485960112684989
0.00557306086647479
0.00627168922816936
0.00690414049800007
0.0074538456795633
0.00798224173992207
0.00853523572076042
0.00913753569637987
0.00985871871755573
0.0108175033916307
0.0121098560982877
0.0140322289016658
0.0160245129766795
0.017674246569908
0.0191141920419263
0.0203924635051774
0.0215088622898619
0.0224686512767217
0.023324705289738
0.0240776735791195
0.0247334500221372
0.0252974216781784
0.0257746788945872
0.0261703604574048
0.0264896693157
0.0267378968522564
0.0269203694471486
0.0270423995172473
0.0271092191684776
0.0271259242961938
0.0270974209082874
0.0270283840750937
0.0269232248041377
0.0267860670085545
0.0266207338275523
0.0264307408427503
0.0262192959024691
0.0259893045871714
0.0257433794713654
0.0254838530397414
0.0252127879877252
0.024931989421366
0.0246430507700595
0.0243473439165874
0.0240460354666674
0.0237401154201058
0.0234303966592001
0.0231175296443831
0.0228020184723096
0.022484229460671
0.0221643988312244
0.0218426385328832
0.0215189400576813
0.0211931762930247
0.0208651004824852
0.0205343431180737
0.0202004044352772
0.0198626448846554
0.019520267937465
0.0191723016347999
0.0188175655916811
0.0184546378951714
0.0180817972153166
0.0176969722734198
0.0172984276468303
0.0168729606096063
0.0164253612139253
0.0159544915022298
0.0154528152618537
0.0149115774123544
0.0143180272524412
0.0136573145306471
0.0129043759780913
0.0120332752404333
0.0109024564524018
0.0100301421875276
0.0102346916957888
0.0109575759469115
0.0121398176464782
0.0136789080940241
0.0155899260970232
0.0179596938725545
0.0208526036213523
0.0241563459170842
0.0278089172464303
0.0317631513129609
0.0359397187609368
0.0401012585105142
0.0444098345150752
0.0491506783486245
0.0545899813731115
0.0610905715929067
0.0693727878945791
0.0803716135449836
0.0933917584984016
0.10792416638855
0.123392279770374
0.137902306104395
0.148068878387701
0.148339716925809
0.147982262960451
0.147682942427131
0.147884129818155
0.119132924848022
0.106475765574006
0.0930519874811018
0.0712693109321353
0.026916912983947
0.0115925596673898
0.0103949734029504
0.00835459811304427
0.00654315059530705
0.00533592026168122
0.00448345884501826
0.00395471280506473
0.00371614066239185
0.00372047768333614
0.00394477862288733
0.00433887955769594
0.00483196838026963
0.00533503412415555
0.00580982732592809
0.00623195863245803
0.00659404536508796
0.00691863965187515
0.00726543202483186
0.0076757778395892
0.00818330403793906
0.00885062179409631
0.00975079664382049
0.010910415866901
0.0123945743713447
0.0138675381184566
0.0151150604202952
0.0162154526996561
0.0171890348155904
0.018030886165377
0.0187735776150221
0.0194399861999977
0.0200298947496991
0.0205471611419206
0.0209951784833534
0.0213773331126817
0.0216971292370979
0.0219581948212101
0.0221642724536302
0.0223191787287924
0.0224267581933496
0.0224908333245668
0.0225151579763432
0.0225033756977315
0.022458985267861
0.0223853133041491
0.0222854937547441
0.0221624544579772
0.0220189090803703
0.0218573541269805
0.0216800702213309
0.0214891262528447
0.0212863905250368
0.0210735317631377
0.0208520313128564
0.0206232030295567
0.02038820181473
0.0201480277881508
0.0199035413612394
0.0196554746268705
0.019404435870896
0.0191509207963366
0.0188953202407637
0.0186379263734208
0.0183789377339646
0.0181184631066486
0.0178565237627841
0.017593054557956
0.0173279025894838
0.0170608250081445
0.0167914825552893
0.0165194334667742
0.0162441184948894
0.0159648506728096
0.0156807831891963
0.0153908991884689
0.0150939061085528
0.0147889532145634
0.0144692848191787
0.0141290469320277
0.013772363346435
0.0133960595627122
0.0129946071013001
0.0125603124311713
0.0120831308133412
0.0115471625586606
0.0109362359231167
0.010165176707868
0.00951812920159664
0.00949554793331155
0.00988737244951857
0.0106831942177415
0.0118218135875429
0.0132847434281798
0.0151096699199506
0.0173234721929865
0.0198805783338438
0.0227283034338514
0.0258311038049047
0.0291368935731807
0.0325658552801113
0.0361798173505612
0.040143787288229
0.0446522630465049
0.0499401919560412
0.0563648454138296
0.0642236097231106
0.0731213062501417
0.0824408213865076
0.091272993991695
0.0987342625507038
0.104768402060637
0.108570186247628
0.112077781853724
0.12010759214278
0.125380263309251
0.0956216836506442
0.0873368688977909
0.080498020297462
0.0758729607082415
0.0415859461044563
0.0153965319699672
0.0105484538375122
0.00852650159813718
0.00688985357588533
0.00567679739949438
0.00478014026991848
0.00420223489224174
0.00391188997468611
0.00386086638618714
0.00400963309995273
0.00429386117994402
0.00464059936316017
0.00498454630098726
0.00530398016966181
0.00559084481382247
0.00585260330271715
0.00611579416458811
0.00642218550461292
0.00680340905537737
0.0072939463096884
0.00794602165085236
0.00880808392791322
0.00988235807623943
0.0111027053976304
0.0122472203954131
0.0132381685419927
0.0141215829046819
0.0149044713185343
0.0155917617441702
0.0162059110035396
0.0167579402733583
0.0172480756492772
0.0176791344315994
0.0180536019564492
0.0183740545400255
0.018643195647093
0.018863862323425
0.0190390044359157
0.0191716517086617
0.0192648723517936
0.0193217322425222
0.019345255372116
0.0193383893999105
0.019303976283126
0.0192447290549134
0.0191632139423691
0.0190618382013548
0.0189428424388204
0.0188082970468572
0.018660102113306
0.0184999909526455
0.0183295374068384
0.0181501538432282
0.0179631050280604
0.0177695170884217
0.0175703892924729
0.0173665959928727
0.0171588965876904
0.0169479473935689
0.0167343045892007
0.0165184326052938
0.0163007108060785
0.0160814388888886
0.0158608414036135
0.0156390714857516
0.0154162133322066
0.0151922840813253
0.0149672337025157
0.0147409448694275
0.0145132291238259
0.0142838247950425
0.0140523867892899
0.0138184835104739
0.0135815734009146
0.0133410069284434
0.0130959353685675
0.0128458168000482
0.0125870868425317
0.0123146502989569
0.012029895735155
0.0117320478003907
0.0114179372130275
0.0110830366850548
0.0107208681515884
0.0103222338765267
0.00987619185775713
0.00933537232125657
0.00883621112047029
0.00869060809260308
0.00888687139273101
0.0094252855595868
0.0102676642225239
0.0113870158281435
0.012794085898108
0.014495826468194
0.0164684965444468
0.0186732371297758
0.0210812061070583
0.023655323163638
0.0263679916849098
0.029247462411373
0.032385446768368
0.035908083229816
0.0399651831744703
0.0447408748528487
0.0503095182756506
0.0564489734588063
0.062739371385986
0.0685277678915247
0.0733915260033595
0.0778463906959522
0.0825937543111946
0.0865894985554728
0.0932119719664256
0.0980717799867362
0.0781089495021652
0.0728823237638821
0.0688272386738526
0.0728204128664018
0.052784274087035
0.0207416796716957
0.0105539390859929
0.00805311285569179
0.00658510571082631
0.00546253373878295
0.00461777181018973
0.0040664458500426
0.00377874954389003
0.00371134660645242
0.00381936919716611
0.00403836708237104
0.00430342796314324
0.00456741185607335
0.00481649419359676
0.00504885829784555
0.00527630192629509
0.00552329604583209
0.00582087074199368
0.00619576993533736
0.00668085100805905
0.00731866352317406
0.00814058291115232
0.00912695707080918
0.0101618573670149
0.0110997454077053
0.0119276488602995
0.0126716647732984
0.0133341140183103
0.01392319032754
0.0144528842627346
0.0149292614541732
0.0153528714808303
0.015725923146687
0.0160504051675617
0.0163284319213872
0.0165622421933494
0.0167542066319631
0.0169068027334917
0.0170225865680333
0.0171041553163304
0.0171541120555828
0.0171750310336392
0.0171694277914009
0.0171397333447787
0.0170882738201654
0.0170172545680228
0.016928749163923
0.0168246923349871
0.0167068763897861
0.0165769507899971
0.0164364266318998
0.0162866765694799
0.0161289394708896
0.0159643292569248
0.0157938407942221
0.0156183612930458
0.0154386722032461
0.0152554567497035
0.0150693105111975
0.0148807443318253
0.0146901910747207
0.0144980114861314
0.0143044990822196
0.0141098843168376
0.0139143381607872
0.0137179747068161
0.0135208533934262
0.0133229796932105
0.0131243059736846
0.0129247294850851
0.0127240921150457
0.0125221737985671
0.01231869230004
0.0121132870863791
0.0119055246920863
0.0116948300646219
0.0114808262605883
0.0112615027428644
0.0110333373371572
0.0107962021211908
0.0105500508905562
0.0102931532330139
0.0100228939105951
0.00973520297290132
0.0094248674334869
0.0090846174347126
0.00868970158022505
0.00830006237099032
0.00811032569075941
0.0081934094877521
0.00856766484749846
0.00921055908655874
0.0100959322599732
0.0112212059859793
0.012582590387019
0.0141636791992923
0.0159352500773317
0.0178731401752659
0.0199489365296995
0.0221544508039762
0.0245074568083052
0.0270626159945743
0.0299035433127751
0.0331314415968441
0.0368502545641394
0.0410551679312964
0.0456052343581765
0.0502285073719748
0.0544817750437653
0.0581286767042791
0.0616840434573168
0.0662368835331526
0.0704392008307704
0.0755921311896876
0.0790774508327896
0.0658015206306727
0.0623435227834628
0.0595802821911744
0.0668453761395774
0.0584524986325947
0.0272276156382699
0.0111897076384288
0.00764211918195045
0.00619778645131783
0.00515676830899246
0.00437724169624876
0.00386923261006302
0.00360136943682449
0.00353361524610793
0.00362014806112879
0.00380028636460089
0.00401744873946638
0.0042360591396001
0.00444689415721478
0.00465152254288472
0.00486325174421876
0.00510404111761643
0.00539873004625238
0.00577093258367465
0.00625035656248571
0.00687061922803264
0.00764952226388472
0.00855176927290991
0.00945091528262438
0.0102523456727277
0.0109706367357511
0.0116199055988206
0.0122011154753517
0.0127224204113413
0.013192681045416
0.0136156550217047
0.0139920562276682
0.0143236996965895
0.0146122640518781
0.0148595666204299
0.0150675456619424
0.0152382678996852
0.0153739018788691
0.0154766924736296
0.0155489262713966
0.015592899858369
0.0156108883652271
0.0156051185490146
0.0155777454154165
0.0155308338145582
0.0154663439964636
0.0153861215335238
0.0152918908001488
0.0151852515586384
0.0150676793459268
0.014940527806651
0.0148050274454954
0.014662293107591
0.0145133293712488
0.0143590354830765
0.0142002156489341
0.0140375813411023
0.0138717575655134
0.0137032920543197
0.0135326584301426
0.0133602619846995
0.0131864449486642
0.013011491029863
0.0128356293463214
0.0126590378882165
0.0124818462118406
0.0123041378531861
0.0121259515684097
0.0119472827688793
0.0117680827986915
0.0115882597212212
0.0114076743669853
0.0112261415660946
0.0110434195314648
0.0108592161826055
0.010673140196738
0.0104849290748064
0.010293397525564
0.01009622141651
0.0098927060490608
0.0096830098936599
0.00946626138751989
0.00924106131768417
0.00900499934519285
0.00875534192944129
0.00848742941776568
0.00819027552680478
0.00788514393243248
0.00769053097591205
0.0077082228522817
0.00797367924989603
0.00847733309521703
0.00919728869191687
0.0101247070187598
0.0112498851739293
0.0125589582952088
0.0140289282851987
0.0156390997473534
0.0173666730459081
0.0192116300777776
0.0211884918218396
0.0233328309927656
0.0257026677125573
0.0283702832065333
0.0313985769566431
0.0347524243953106
0.0383316216105759
0.0419552896906956
0.0453149592010722
0.0482588078258345
0.0512111879349711
0.0552454667597552
0.0593545565932058
0.0637458263376085
0.0663246894083551
0.0569265966952047
0.054487421874817
0.0524527093424048
0.0602699435281306
0.0607815487221504
0.0338983968364102
0.0126539757466597
0.00749203684719159
0.00590846405270486
0.00491120117776294
0.00418149646272978
0.00370905669639058
0.00345883731086962
0.00339178730445605
0.00346242196528539
0.00361452293579354
0.00379853098253089
0.00398648392847136
0.00417226548478884
0.00435951226763643
0.0045618556244156
0.00479898369361622
0.00509177765692827
0.00546125162416955
0.00593331192560601
0.00653363646054074
0.00726942233945836
0.00809645735077346
0.00889404497797147
0.00960078463178777
0.0102415824689359
0.010823372671368
0.0113468049715957
0.0118189045135697
0.0122454950341264
0.0126291495900431
0.0129706489864263
0.0132715363535687
0.0135332798919299
0.0137574918272178
0.0139459033754705
0.0141003715283943
0.0142228517732591
0.0143153741368529
0.0143800105268587
0.0144188451958783
0.0144339454827509
0.0144273368286247
0.0144009810696108
0.0143567593882288
0.0142964588998207
0.0142217632819959
0.0141342467158174
0.0140353708161586
0.0139264860389135
0.0138088299979956
0.0136835300642815
0.0135516092745458
0.0134139906430263
0.0132715017134663
0.0131248837137498
0.0129747943334631
0.0128218133036193
0.0126664504366579
0.0125091490622645
0.0123502912129342
0.0121902024753807
0.0120291562889145
0.0118673777255591
0.0117050468752943
0.0115423016145526
0.0113792401496649
0.0112159226633592
0.0110523731362992
0.0108885795700387
0.0107244954510923
0.0105600377463125
0.0103950890342148
0.0102294909887946
0.010063050995255
0.0098955086458436
0.00972669076026122
0.00955588924566767
0.00938159162710374
0.00920303133795006
0.00902039487966858
0.00883334988848906
0.00864130915174239
0.00844303949537852
0.00823743768586749
0.00802176107310239
0.0077934938642696
0.00755448321152872
0.0073730509992343
0.00735426509892465
0.00754556837995114
0.00794832090494558
0.00854611573247282
0.0093276937598833
0.0102802298767646
0.0113907379861016
0.0126402677634843
0.0140107456790128
0.0154833119666928
0.0170616151293733
0.0187591877311361
0.0206012925539499
0.022630143595869
0.0248997483228323
0.0274499157283459
0.0302341621285675
0.0331752695188027
0.0361484411308065
0.0389307015333733
0.0414118119613251
0.0439258585121842
0.0474146458577157
0.051234211271339
0.0551701944693249
0.0572853482077932
0.050239288373406
0.0484288258590251
0.0469027134419694
0.0540039789467705
0.0607498931310016
0.0401228830918786
0.0150631639733702
0.00765018986708998
0.00574667596856733
0.00474776974933749
0.00404769910022441
0.00359846380223525
0.00335917804974465
0.0032899794646709
0.00334589127542764
0.00347491059520694
0.00363316592068235
0.00379791727458626
0.00396523431238552
0.00414000365399477
0.00433559636224405
0.00456973954851564
0.00486049748662072
0.00522646905673166
0.00568963931389183
0.00626888155866664
0.00696347989526125
0.00772546069380469
0.00844574101288998
0.0090842503550445
0.00966827052169758
0.0102004315429103
0.0106812337691444
0.0111164671415831
0.0115100828832872
0.0118639920249961
0.0121789887136872
0.012456419879508
0.0126976032720793
0.0129040035605173
0.0130772042647924
0.0132189132313939
0.0133309350368131
0.0134151477226351
0.0134734713914896
0.0135078399673245
0.0135201733704727
0.0135123537787758
0.0134862050466293
0.013443476594836
0.0133858307280846
0.0133148338057811
0.0132319505580858
0.0131385419055188
0.0130358653226629
0.0129250723459897
0.0128072135091061
0.0126832425988978
0.0125540206691071
0.0124203204644527
0.0122828346125977
0.0121421788358237
0.0119988971606094
0.0118534690719512
0.0117063131863025
0.011557792077224
0.0114082168410897
0.0112578512338762
0.0111069153573912
0.0109555890032358
0.0108040144921122
0.0106522993227511
0.0105005181328247
0.0103487148101935
0.0101969034324783
0.0100450702284167
0.00989317304157071
0.00974114411115705
0.00958888663875069
0.00943628156200379
0.00928316574960109
0.00912943932080603
0.00897469072130882
0.00881795496129666
0.00865859569214555
0.00849679836551526
0.00833258393382569
0.00816592665817639
0.00799644669903916
0.00782415575211043
0.00764776177910693
0.00746993200437301
0.00728310276692524
0.00712248582423067
0.0070852736126213
0.00722544580950845
0.00755314166297972
0.00805765077762165
0.00872747803382888
0.00954841454485913
0.0105078244716264
0.0115894650890819
0.0127772791184817
0.014055325545918
0.0154288991980593
0.0169112076801017
0.018521691238911
0.020292494535612
0.0222654846765296
0.0244665306196663
0.0268460675096699
0.0293415475877131
0.0318637466603419
0.0342447542629243
0.0363949198572777
0.0385726759629624
0.0415698235570433
0.0450201423100688
0.0485969935067807
0.0504816318169436
0.0449853547609859
0.0435977006579532
0.0424800172150171
0.0483932074688822
0.0591141409019491
0.0452668911843077
0.0184769044340501
0.0081558615783621
0.00571392120226948
0.00466039870551421
0.00396972969244578
0.00353170370585263
0.00329638792969412
0.00322165861991846
0.00326275739441046
0.00337134000456588
0.00350809811076648
0.00365397849147847
0.00380659219999
0.0039715288565181
0.00416160227968076
0.0043928460898414
0.00468113355356196
0.00504276027140036
0.00549595998974571
0.00605394937261512
0.00671039355602855
0.0074169969705168
0.00807762527212058
0.00866565992514548
0.009207097905158
0.00970197549263797
0.0101506196899246
0.0105577221179546
0.0109260364300228
0.0112570727878641
0.0115516102821373
0.0118108497360648
0.0120359978638402
0.0122284109725809
0.0123895657401448
0.0125210629941218
0.0126245998145382
0.0127019463517192
0.012754915117455
0.0127853334174748
0.0127950164008342
0.0127857440800695
0.0127592414795543
0.0127171631679083
0.0126610810843903
0.0125924761273612
0.0125127328590503
0.0124231384539445
0.0123248800943281
0.0122190455457611
0.0121066273294746
0.0119885265185604
0.0118655566465108
0.0117384481310698
0.0116078557136883
0.0114743620536685
0.0113384827541973
0.0112006728647784
0.0110613307556867
0.0109208027334967
0.0107793874215778
0.010637339794845
0.0104948748164985
0.0103521707701707
0.0102093721711744
0.0100665925114644
0.0099239164748801
0.00978140228302323
0.00963908319409448
0.00949696985849412
0.00935505091262886
0.00921329627986731
0.00907165608732466
0.00893006762233135
0.00878844228028567
0.00864674167448949
0.00850474992491486
0.0083618811673176
0.00821768486996063
0.00807236822505184
0.00792619287259208
0.00777953086705928
0.00763262961082421
0.00748628172236469
0.0073403142610067
0.00720048309503279
0.00705510900440542
0.0069177621286701
0.00687355555127582
0.00697857134816565
0.00724953781369693
0.00768110422458603
0.00826278743234082
0.00898012696613645
0.00982074938471739
0.0107702963395641
0.0118142918190424
0.0129390418025857
0.0141505150833329
0.0154617323222967
0.016888717907197
0.0184570257344499
0.0202001375512913
0.0221350972414015
0.0242132124303597
0.0263824137296823
0.0285766476997067
0.0306637732643226
0.0325632513129055
0.0344721905758547
0.0370471514891708
0.0401139371666686
0.043361373891533
0.0451140038718221
0.0407140488322033
0.0396325080466353
0.0388603225017528
0.0435153014039334
0.0564456215370288
0.0490153586238266
0.0227697233725062
0.00907163406679352
0.00581624380023252
0.00464226712745627
0.0039399411081646
0.00350190301071446
0.00326401808103369
0.00318048440115158
0.00320622645544302
0.00329587966500522
0.00341376921616533
0.00354348232352811
0.00368369218488516
0.00384031254595606
0.0040254482372271
0.00425364907859517
0.00453896974051721
0.00489552092777689
0.00533810377711136
0.00587535500308327
0.00649716862368536
0.00715702956371933
0.00777118303395777
0.00832124921273955
0.00883032673290489
0.00929687429626577
0.00972099636586907
0.0101064606320364
0.0104552272508284
0.0107685432328739
0.0110471580311778
0.0112921610811149
0.0115046757950638
0.0116859786206555
0.0118374693748486
0.0119606730349073
0.0120572113989061
0.012128779519709
0.0121771152323591
0.0122039717925834
0.0122110913734887
0.0122001824868976
0.0121729005607937
0.0121308328998601
0.0120754868522472
0.0120082817231196
0.0119305442330206
0.0118435070694651
0.0117483052721395
0.0116459792331798
0.0115374777394131
0.011423661740289
0.0113053082752179
0.0111831149724112
0.0110577069316104
0.0109296406561597
0.0107994090132759
0.0106674472759264
0.0105341371737524
0.0103998113995506
0.0102647578817936
0.0101292237646872
0.00999341903024197
0.00985751984311433
0.00972167153733525
0.00958599145465986
0.00945057137348386
0.00931548005544382
0.00918076519213494
0.00904645608990537
0.00891256514999943
0.00877909161232979
0.0086460222884857
0.00851333875954286
0.00838101084514568
0.00824905227024905
0.00811738292347668
0.00798568568163662
0.00785369670149131
0.00772166892630265
0.00759003664783873
0.00745945890417126
0.00733064742101307
0.00720494795378601
0.00708305833048432
0.00697246939385049
0.00686020106823822
0.00674598064545004
0.00670199771508086
0.00678324884204537
0.00701099194947383
0.00738459611896571
0.00789526295739124
0.0085290280991878
0.00927386174902036
0.0101167840311282
0.0110445878300982
0.0120453606034355
0.0131252602514819
0.0142970978830222
0.0155748285527615
0.0169795958353804
0.0185389146380938
0.020264098557613
0.0221093481238477
0.0240307743803737
0.025977607205033
0.027840735584731
0.0295419553691676
0.0312287645271695
0.0334453239586496
0.0361459844723064
0.0390794161795859
0.0407334967365134
0.0371484756365387
0.0363004764357486
0.0358200791924031
0.0393423115918621
0.0531322224314414
0.051310825629322
0.0276108180776832
0.0104884276778663
0.00607237417985587
0.00469157137390336
0.00395345741186069
0.00350427691933221
0.00325750402679317
0.00316194888043195
0.00317149695522831
0.00324301521733213
0.00334367151684389
0.00345893653359619
0.00358817249867371
0.00373734561415125
0.00391777465978429
0.00414268579403741
0.00442455845962808
0.00477546082142652
0.00520714683639581
0.00572463377837553
0.0063154711214776
0.00693609481813927
0.00751384064135285
0.00803511501448608
0.00851949999444873
0.00896447738165902
0.00936988990943883
0.00973873574106855
0.0100724287999042
0.0103720283098654
0.0106382468980174
0.0108720875367874
0.0110746109478254
0.0112470355808817
0.0113907076001831
0.0115071004328092
0.0115977857557836
0.011664409162478
0.011708659535475
0.0117322415239034
0.0117368491486559
0.0117241433511065
0.0116957327643545
0.011653158944752
0.0115978847471714
0.0115312865425203
0.0114546507809337
0.0113691700856855
0.0112759421955369
0.0111759726937081
0.0110701778280992
0.0109593883205717
0.0108443533967538
0.0107257454106093
0.0106041663400043
0.0104801520249123
0.0103541771416816
0.0102266609379846
0.0100979714466644
0.00996842995480523
0.00983831522886493
0.00970786747901332
0.00957729199496803
0.00944676252426033
0.00931642433930822
0.00918639716981776
0.00905677781732265
0.00892764288028167
0.00879905106797086
0.00867104616982003
0.00854365924273102
0.00841691274465206
0.00829082268913366
0.00816540613540734
0.00804067951285658
0.00791670090844214
0.00779348843871385
0.00767091942460891
0.00754889795761546
0.00742773791083348
0.00730800378118884
0.00719056442560553
0.00707647561410362
0.00696747480875508
0.00686493662013378
0.00677720745403467
0.00669147961663694
0.00659896614553659
0.00655965864944101
0.00662539145381871
0.0068201395161161
0.00714720082088146
0.00759976058303537
0.00816483468225076
0.00883087120429919
0.00958595874770823
0.0104179347580711
0.0113163336811536
0.0122872611662389
0.0133432627055666
0.0144970058479442
0.015766630289081
0.0171753104629161
0.0187306409153375
0.0203908056508951
0.022118688164017
0.0238734840779583
0.0255603606000583
0.027099252683191
0.0285972852425473
0.0305089154157507
0.0328738412018089
0.0355089839466624
0.0370709529113747
0.0341114149965999
0.0334475737449542
0.0332071900968832
0.0358055286378672
0.0494376319129359
0.0522560376976232
0.0325080052906324
0.0125239895388365
0.00651699875805282
0.00481276336644116
0.00400866418953396
0.00353632827522422
0.00327417239881576
0.00316323368301724
0.00315543708233491
0.00320906905607257
0.00329343306060382
0.00339529964974023
0.00351441596340537
0.00365659725892801
0.00383233720043077
0.00405366055572136
0.00433164716366872
0.00467648656013649
0.00509728897700979
0.00559627893527392
0.00615972610032335
0.00674757420565899
0.00729677423875644
0.00779623198240701
0.00826187942642328
0.00869057022362801
0.00908185954165316
0.00943809787013339
0.00976030580253411
0.010049396746393
0.0103060431079964
0.0105311797873839
0.0107258208474059
0.0108911442889386
0.0110284614458079
0.0111392140329379
0.0112249441703692
0.0112872689438677
0.0113278492776394
0.0113483619460045
0.0113504730080358
0.0113358152670321
0.0113059690442053
0.0112624475669321
0.0112066854447046
0.0111400315127003
0.0110637452243509
0.0109789916896316
0.0108868429552436
0.0107882799397248
0.0106841953886856
0.0105753977904254
0.0104626155709527
0.0103465018837263
0.0102276408615497
0.0101065521419922
0.00998369591379031
0.00985947846808659
0.00973425657140696
0.00960834195073853
0.00948200551991885
0.00935548136129504
0.00922897039941032
0.00910264383063784
0.00897664627626683
0.00885109881134001
0.00872610174528907
0.00860173751023595
0.00847807328248206
0.00835516420356076
0.0082330561407246
0.00811179016946371
0.00799140585349341
0.00787194905885081
0.00775347389686723