/*--------------------------------*- C++ -*----------------------------------*\
  =========                 |
  \\      /  F ield         | OpenFOAM: The Open Source CFD Toolbox
   \\    /   O peration     | Website:  https://openfoam.org
    \\  /    A nd           | Version:  7
     \\/     M anipulation  |
\*---------------------------------------------------------------------------*/
FoamFile
{
    version     2.0;
    format      ascii;
    class       volScalarField;
    location    "6000";
    object      nut;
}
// * * * * * * * * * * * * * * * * * * * * * * * * * * * * * * * * * * * * * //

dimensions      [0 2 -1 0 0 0 0];

internalField   nonuniform List<scalar> 
15600
(
1.62026637499917e-07
1.48080122882166e-07
8.62855730192805e-08
3.37517404401315e-08
8.17084256015759e-09
5.27648261914813e-09
5.4816421923845e-09
4.35811978311097e-09
3.70964576155348e-09
3.5973278989035e-09
3.76030107478242e-09
4.15068787057727e-09
4.83255888954194e-09
5.93400694942211e-09
7.67798643425162e-09
1.03147475929164e-08
1.41922960873369e-08
1.97942260136247e-08
2.78288854477211e-08
3.9171043812772e-08
5.47542669944895e-08
7.54041503564583e-08
1.01868354754513e-07
1.34207806242181e-07
1.70772975605299e-07
2.08808780470802e-07
2.44097792722347e-07
2.72248163292419e-07
3.38954997712599e-07
4.32095764271086e-07
5.11615446568612e-07
5.81115865708871e-07
6.44598808016732e-07
7.02835449606359e-07
7.55406644361006e-07
8.01935514567473e-07
8.43226823058767e-07
8.79322887167433e-07
9.10354397897344e-07
9.36477966130819e-07
9.57895886522328e-07
9.74851201002843e-07
9.87624367229723e-07
9.9652168502395e-07
1.00186709641635e-06
1.00399146628458e-06
1.00322494515235e-06
9.99889357778256e-07
9.94293019912092e-07
9.86726462269541e-07
9.77459699995809e-07
9.66740604238851e-07
9.54794161347948e-07
9.41822449264512e-07
9.2800524763366e-07
9.13501011838069e-07
8.98448486494937e-07
8.82966433118633e-07
8.67156007958318e-07
8.51106909727788e-07
8.34890025890529e-07
8.1856573676802e-07
8.02185795888487e-07
7.8578781226799e-07
7.69400968991637e-07
7.53046574032631e-07
7.36738481834189e-07
7.20483835248039e-07
7.04283588552925e-07
6.88132877580593e-07
6.72021401746799e-07
6.55933399374424e-07
6.39847940836216e-07
6.23738319255755e-07
6.07572485453462e-07
5.9131131825045e-07
5.74909859343773e-07
5.58313121571672e-07
5.41459834137674e-07
5.24272848573402e-07
5.06677841438913e-07
4.88458425926918e-07
4.69758452650085e-07
4.5058392659392e-07
4.3070726895772e-07
4.09743491648443e-07
3.87455687837389e-07
3.63301452982441e-07
3.37015089072778e-07
3.07793505782312e-07
2.74591693469588e-07
2.32709598515083e-07
2.09059949418564e-07
2.26984373171409e-07
2.41185201735924e-07
2.52515219446852e-07
2.55474205214618e-07
2.52113007879494e-07
2.44918880721203e-07
2.370467747901e-07
2.2773091563773e-07
2.18442151330979e-07
2.09297801456147e-07
2.00384558663465e-07
1.88615157083115e-07
1.74743190507568e-07
1.59799391291486e-07
1.44605600681146e-07
1.30185588372635e-07
1.18140953365259e-07
1.11460329018319e-07
1.10059928328312e-07
1.15458433126511e-07
1.3244407103286e-07
1.65415482028785e-07
2.09619326714615e-07
2.04147464281798e-07
1.7010330752487e-07
1.40130791799491e-07
1.52387261932817e-07
1.30041451680539e-05
1.19046802370516e-05
6.85675815174347e-06
2.85330802592358e-06
7.54463509322864e-07
4.93498014160707e-07
5.14368985008896e-07
4.10884248630845e-07
3.47926313445946e-07
3.35795026199467e-07
3.49482844487023e-07
3.84109613327028e-07
4.45119181857266e-07
5.43481926187184e-07
6.98755200809172e-07
9.32781024580768e-07
1.27672385963827e-06
1.77154434980097e-06
2.47772590333829e-06
3.47058106534196e-06
4.8272364730389e-06
6.59889727244019e-06
8.82996389638544e-06
1.1513187347776e-05
1.4481064048974e-05
1.74674304479293e-05
2.00217956396398e-05
2.15979759391031e-05
2.62049871191461e-05
3.28762103634731e-05
3.84289573848117e-05
4.31350786203673e-05
4.73567225248142e-05
5.11559788816353e-05
5.45197426190705e-05
5.74326774883762e-05
6.00159545527098e-05
6.22803830642037e-05
6.42407929389038e-05
6.59108533140814e-05
6.73049144119465e-05
6.8438116601239e-05
6.93265978762489e-05
6.99871702172777e-05
7.04371408878659e-05
7.0693945655667e-05
7.07749024368334e-05
7.06969230513258e-05
7.04763171052538e-05
7.01286125406379e-05
6.96684325214344e-05
6.91094119969177e-05
6.84641469097138e-05
6.77441721936124e-05
6.69599680099626e-05
6.61209827975923e-05
6.5235694280664e-05
6.43115513485876e-05
6.33550753978647e-05
6.23722088739585e-05
6.13678692532023e-05
6.0346353022319e-05
5.93114616564544e-05
5.82661791814199e-05
5.7212964154326e-05
5.61537784624054e-05
5.5090101831578e-05
5.40229664435414e-05
5.29529800573865e-05
5.18803407541134e-05
5.08048526022263e-05
4.97259168989925e-05
4.8642541560923e-05
4.75532948061115e-05
4.64563198244088e-05
4.53492142926863e-05
4.42290875349528e-05
4.30922759731821e-05
4.19345443904784e-05
4.07504392699086e-05
3.95345430074068e-05
3.82658546438577e-05
3.69468740627705e-05
3.55832619067094e-05
3.41623208894373e-05
3.26539955663384e-05
3.10392867556685e-05
2.92723888455775e-05
2.73301050848539e-05
2.51412415714475e-05
2.26082023339339e-05
1.93481814681677e-05
1.76433137635037e-05
1.94488286637862e-05
2.06759925366269e-05
2.16224356926367e-05
2.18811474370379e-05
2.16320605063603e-05
2.10743877737032e-05
2.04422065118122e-05
1.96581194486418e-05
1.88565583100363e-05
1.80485344775456e-05
1.72365888148216e-05
1.61773255535864e-05
1.49744060846387e-05
1.37033468272987e-05
1.24205564542172e-05
1.12105798032796e-05
1.02104090222563e-05
9.64399923580587e-06
9.45630264118104e-06
9.78413481827661e-06
1.0942905571573e-05
1.30661938954074e-05
1.54929824837688e-05
1.41427943971553e-05
1.17997198349785e-05
1.0247043712466e-05
1.18945103306249e-05
9.63220534911865e-05
9.35310769578291e-05
6.93094014565832e-05
3.67657661444324e-05
1.16668455257082e-05
6.99428845988526e-06
7.42595791344291e-06
6.02615011442576e-06
5.10769293673856e-06
4.90928065357417e-06
5.08905667440113e-06
5.56480677351997e-06
6.39975706568738e-06
7.74382078778829e-06
9.8489993404972e-06
1.2969260982107e-05
1.74233456423718e-05
2.36019858871682e-05
3.19828429037603e-05
4.29784513731961e-05
5.67820088544807e-05
7.3276833126256e-05
9.20678417485895e-05
0.000112237808677898
0.000132265278571301
0.000150687852367732
0.000166720181418296
0.000183188685472653
0.00021225125778942
0.000244778861152062
0.000270195491919002
0.000291280585402135
0.000310114028005513
0.000327444618920713
0.000343377353352673
0.000357291272289152
0.000369611493063137
0.0003804304330762
0.000389842329402692
0.000397926728407818
0.000404759471243275
0.000410414609264386
0.000414966647271501
0.00041849016149603
0.000421059811847478
0.000422749450121063
0.000423631565592221
0.000423776484521149
0.000423251839549867
0.000422122050857529
0.000420447965970859
0.000418286618120481
0.000415691074391195
0.000412710371109821
0.000409389538757072
0.000405769680529765
0.00040188815708621
0.000397778386735482
0.000393470161745926
0.000388990912491697
0.000384364271057549
0.000379611137254368
0.000374750259549844
0.000369797224117732
0.00036476532266289
0.000359665681955465
0.000354507307134152
0.000349297186522982
0.000344040353810328
0.000338739915228661
0.000333397072455432
0.0003280110490559
0.00032257906849495
0.000317096114809948
0.000311554890966975
0.000305945254577378
0.00030025426423232
0.000294464910673561
0.000288556572546327
0.000282502210136031
0.000276272892149282
0.000269784892650881
0.000263254042110401
0.000256606666774481
0.00024967977950008
0.000242322929497876
0.000234402963075615
0.00022570617376397
0.000215998572376639
0.000204992676008091
0.000191696724529801
0.000173933239630482
0.000161894704448475
0.000168092005027636
0.000176757464911424
0.00018343794669323
0.000185668522982319
0.00018453234431566
0.0001813118418875
0.000177345074160308
0.000172164152234492
0.000166528484164565
0.000160575468160794
0.000154287620131748
0.000146137698519928
0.000136823587508172
0.000126923952694172
0.000116831190772261
0.000107117069439239
9.88429468991858e-05
9.36769335554269e-05
9.11147666689268e-05
9.20446366016397e-05
9.83101130051132e-05
0.000110015445901083
0.00012091432152945
0.000113308092439778
9.7410298555935e-05
8.60702642380888e-05
8.95013869296581e-05
0.000245385612316934
0.000249430878457658
0.000202177019245216
0.000123027122597534
5.71018372295437e-05
3.88297808722485e-05
4.22301075345809e-05
3.56040571785878e-05
3.06158064764989e-05
2.93563431871729e-05
3.01485487535139e-05
3.2389647423321e-05
3.63183594874168e-05
4.25048285638969e-05
5.18923967171689e-05
6.51948977384145e-05
8.31303658455466e-05
0.000106335061497514
0.000135508172343524
0.000170844883594637
0.000211752124913764
0.000257032818970562
0.000305214626458884
0.000353731341071234
0.000399098735128063
0.000439036687467918
0.0004752359067156
0.000518154492170303
0.000587067530437316
0.000657945194945611
0.000712663030004364
0.000758467218859948
0.000799255354648583
0.00083684597227662
0.00087048112705337
0.00089988478428871
0.00092579787972834
0.000948468995955878
0.000968131274610495
0.000984978399759376
0.000999189846884739
0.00101093588285764
0.00102038323459008
0.00102769519409573
0.0010330322455455
0.00103655087044364
0.00103840284004549
0.00103873401655839
0.00103768358259203
0.00103538327993903
0.00103195690055106
0.00102751998910399
0.00102217968832721
0.0010160347351813
0.00100917561097256
0.00100168476521581
0.000993637028627224
0.000985099258844562
0.000976131304123776
0.000966787910951699
0.000957116623472267
0.000947159379333732
0.000936953585480639
0.000926530716151028
0.000915917604066764
0.000905136739741321
0.000894206385896137
0.000883140760589231
0.000871950143958825
0.00086064091126493
0.000849215540698781
0.000837672444999074
0.000826005858647721
0.000814205344251619
0.000802255575533488
0.000790135225960325
0.000777816777194777
0.000765264108650438
0.000752432774647122
0.000739264742791693
0.000725695767661523
0.000711575198439354
0.000697108927693556
0.000682552688931281
0.000667400489317122
0.000651306163515389
0.000633961984778556
0.000614915819102732
0.000593621805417849
0.000569374087674183
0.000540385906931005
0.000501282626055939
0.000472991459353593
0.00048492600673113
0.000508348872034616
0.000527829595036223
0.000536988977584541
0.000537858307261806
0.000533543323143905
0.000526973274042556
0.000516956556356764
0.00050492598773901
0.000491319424637267
0.000476002485296349
0.00045530288870697
0.00043090728437382
0.000404648658565101
0.000377711644617132
0.000351590173821177
0.000329319078864742
0.0003156524063912
0.000309066873694054
0.000311618026779224
0.000328391589282828
0.000359831005944979
0.000388488431456102
0.000361252302805218
0.000300026201983007
0.000242809755645775
0.000231874618588486
0.000452286768240547
0.000463125735986328
0.000387114214576134
0.000237972007244989
0.000133899861798609
0.000112955022409564
0.000130376550957727
0.000116623020578399
0.000102989666408258
9.88598667621013e-05
0.000100333976936219
0.00010530761320071
0.000114232265858371
0.000128277309799165
0.000149488260233628
0.000178998507911463
0.000217553025440595
0.000265355120634401
0.000322800784228021
0.000389229736097221
0.000462680284544615
0.00054068162936605
0.000620939243526351
0.00069935423592487
0.00077068775328043
0.000832895393646187
0.000891758551565546
0.000965532430664626
0.00108181166816096
0.00119981471261161
0.00129078902632905
0.00136704124681283
0.00143462199356897
0.0014955845248711
0.00154949956870961
0.00159669202514738
0.00163818306236353
0.00167441253230719
0.00170577703076712
0.00173260594571667
0.00175520218787267
0.00177385055977636
0.00178882719925202
0.0018004003474292
0.00180883161839613
0.00181437455015525
0.00181727370903676
0.00181776309652418
0.00181606511315285
0.00181238956084482
0.00180693298487793
0.00179987834062693
0.00179139486098653
0.00178163814901101
0.00177075049181082
0.00175886130537557
0.00174608762762525
0.00173253397280164
0.00171829399558505
0.00170345265719733
0.00168808399524627
0.00167225304811289
0.00165601735571686
0.00163942550782146
0.00162251869460095
0.00160533121268305
0.00158789069419913
0.00157021837463731
0.00155232925098712
0.00153423212160326
0.00151592956376418
0.00149741766253512
0.00147868576025536
0.00145971569624508
0.00144048130817422
0.00142094677773283
0.00140106596537178
0.00138077894623731
0.00136001157623852
0.00133866807796956
0.00131663938776204
0.00129371109388872
0.00126997970004302
0.00124578218223004
0.00122059217893328
0.00119378847452705
0.00116481426455929
0.00113289987909002
0.0010970961161957
0.00105606818859951
0.00100724835643106
0.000941264154591381
0.000892656480965733
0.000911642805523032
0.000954449934698405
0.000993629338062079
0.00101678431658987
0.00102572981953464
0.00102553912768181
0.00102089767504374
0.00100984339923486
0.000994107990727891
0.000974498254328026
0.000950655200086577
0.000916504010451641
0.000874665054326187
0.000828880642418439
0.000781681519610053
0.000735863743270612
0.000697232539608538
0.000674903597183847
0.000666443196179686
0.000674859143819993
0.000709044201985164
0.000770129938689209
0.000826512977036826
0.000773818378407716
0.000642691370325341
0.000498468565335461
0.000444998474479626
0.000726314160451741
0.000734142489337113
0.000626254456783672
0.000379024234259977
0.000226766408518157
0.000211173654986294
0.000267003602893779
0.000257540492510021
0.000234540812838697
0.000226215242538006
0.000227663668029444
0.000234616165961191
0.000247860147089874
0.000269557764914552
0.000303423339366098
0.000350995833950159
0.000412525332582792
0.000487210650310513
0.000574848617785904
0.000673672555193999
0.000780245584955383
0.000891000744092744
0.00100307125208446
0.00111097019692434
0.00120817569696638
0.00129381594016926
0.00137841530179954
0.0014881986394479
0.0016573455868846
0.00182747659953037
0.00195915587924673
0.00206972173138962
0.00216719520422536
0.00225386818966611
0.00233018218323992
0.00239707532608265
0.00245583368135395
0.00250710917081321
0.00255147542019496
0.0025894109399698
0.00262135480172725
0.0026477185486201
0.00266889940013229
0.00268528178219995
0.00269723918269314
0.00270513247036467
0.00270930875734639
0.00271009940426778
0.00270781868146047
0.00270276252730531
0.00269520772585667
0.00268541153725964
0.00267361159188922
0.00266002609117411
0.00264485430438809
0.00262827730916226
0.00261045819581284
0.00259154299909633
0.00257166239270945
0.00255093419533316
0.00252946130732945
0.0025073338562676
0.00248463104654074
0.00246141988312174
0.00243775688683828
0.00241368881803677
0.00238925305109373
0.00236447793339161
0.00233938299917058
0.00231397901766603
0.00228826792959429
0.00226224246970102
0.00223588574505698
0.00220917020439311
0.00218205678098471
0.0021544927111703
0.00212641022198006
0.00209772210796264
0.00206832018666494
0.00203806606757778
0.0020067985893376
0.00197424009721795
0.00194034784498751
0.00190537020780142
0.00186883677354643
0.00182989216915295
0.0017876917418053
0.00174110174808703
0.00168870084549592
0.00162843551490542
0.00155686240939112
0.00146038055178335
0.00138727852535439
0.00141057220931515
0.00147413915306682
0.00153769528135282
0.0015812009016326
0.00160457470801578
0.0016143789624628
0.00161697953916026
0.00160976445769267
0.00159435746582361
0.00157185238889894
0.00154154052698113
0.00149499602789002
0.00143556002447064
0.00136929507128747
0.0013006139851226
0.00123400491843603
0.00117858289767204
0.00114851956824609
0.0011409803385079
0.00115952540044221
0.00121632209938764
0.00131299849113535
0.00140264741473829
0.00132505073745713
0.00111405429341296
0.00086335167911923
0.000743017410627418
0.00107140432553403
0.00106430555206592
0.00092323110342951
0.000555236164486571
0.000332589686103969
0.00031115898278816
0.00042124064526235
0.000444207049523577
0.000418112425356282
0.00040613382806113
0.000407026700813699
0.0004145825614814
0.000430241770336187
0.000457808489047549
0.000503302842229604
0.000568733722722988
0.000653446180113657
0.000755317775591092
0.000873353899787666
0.00100452991508134
0.00114392363566143
0.00128705027170835
0.0014305752981545
0.00156781683578227
0.00169157849005422
0.00180288932803685
0.00191724410960624
0.00206845885243073
0.00229424918398155
0.00251904521690625
0.00269431144746338
0.00284191427390162
0.00297149299796751
0.00308584638690096
0.00318640523324786
0.00327467667650968
0.00335220994849151
0.00341988301239999
0.00347845580034433
0.00352856579251613
0.00357079746841226
0.00360569800955708
0.00363379414096514
0.00365559454566486
0.00367159226568995
0.00368226283870268
0.00368806289659272
0.00368942778420382
0.00368676990081246
0.00368047721816665
0.00367091228491477
0.00365841181929294
0.00364328663061283
0.00362582192943018
0.0036062781034781
0.00358489136167689
0.00356187426898391
0.00353741747857274
0.00351169139784517
0.0034848490145002
0.00345702419274875
0.00342833397841204
0.00339888073616325
0.00336875118736799
0.00333801823996739
0.00330674192608622
0.00327496994028188
0.00324273809492652
0.0032100705916593
0.00317698007824148
0.00314346753609428
0.00310952179382541
0.0030751189117078
0.00304022087828206
0.00300477434395071
0.0029687079240141
0.00293193012622027
0.00289432403405758
0.00285574439274298
0.00281600681656962
0.00277489288838
0.00273206038412659
0.00268732340270453
0.00264076371557787
0.00259193971293678
0.00253980617814865
0.00248322657957311
0.00242068551145719
0.00235025312006964
0.00226913410635823
0.00217295963139846
0.00204404751900037
0.00194293184346137
0.00196559717462922
0.00204854386518986
0.00213875963388422
0.00220741033488147
0.00225084061006673
0.00227620992031748
0.00229124309892459
0.00229278916690678
0.00228202637895909
0.00226014962488404
0.0022259445843239
0.00216878581632514
0.00209251630432523
0.00200571914479868
0.00191512484499041
0.00182730043543251
0.00175507401470979
0.0017180219831303
0.00171347763613616
0.00174524699878334
0.00182793700084101
0.00196315762312753
0.00208822627159821
0.00198839443547838
0.00169342559090512
0.00132886246383188
0.00112706026382852
0.00148633272401456
0.0014539221457178
0.00127753421665359
0.000778017840721442
0.000446265831781261
0.000406581426003363
0.000564516975166429
0.000654851866230485
0.000640135224880941
0.000627407935171137
0.000628129984548832
0.000635451106879528
0.000651876818338502
0.000683544403382988
0.000739363136652341
0.000821956773458052
0.000929516207964397
0.00105841379045693
0.00120668269608325
0.00136993100244255
0.00154179739491371
0.00171703882191765
0.00189192832489825
0.00205886429926142
0.00221057165673757
0.0023504484891423
0.00249882395937058
0.00269613168694771
0.00298083328434174
0.00326148220749521
0.00348226595520323
0.00366886065723062
0.00383221992944438
0.00397588957983766
0.00410225120304957
0.00421333196597562
0.00431094727116227
0.00439621017124442
0.00447007327742136
0.00453334016394964
0.00458674721148263
0.00463098339659196
0.00466671060544618
0.00469456708435939
0.00471517038042772
0.00472911537840302
0.00473697265140927
0.00473928573521898
0.00473656915705865
0.00472930673218234
0.00471795039621737
0.00470291976218593
0.00468460206935214
0.00466335262357348
0.00463949585975716
0.00461332550608501
0.0045851063309782
0.00455507590923891
0.00452344650423454
0.00449040814031257
0.00445612737531884
0.00442074973110788
0.00438440206836614
0.00434719201745748
0.00430920989797202
0.00427052985820138
0.00423121058438358
0.00419129585526086
0.0041508148706036
0.00410978231563051
0.00406819819342696
0.00402604722669879
0.0039832980337558
0.00393990155032026
0.00389578932281608
0.00385087030330261
0.00380502795022344
0.0037581140595687
0.00370994433028792
0.00366028618387541
0.0036088605863964
0.00355525882265552
0.00349915655136275
0.00344044369457543
0.00337864031158958
0.00331255306157713
0.00324076165184967
0.00316136842147228
0.00307192219983616
0.00296889284909821
0.00284696568319393
0.00268474097684095
0.00255306158853526
0.00256982321592228
0.00266902238418983
0.00278617927772642
0.00288313252337519
0.00295123551463763
0.00299715847904969
0.00302945859256552
0.00304446879364154
0.00304264464815964
0.00302503772495712
0.00298974707912598
0.00292412544979062
0.00283233303399116
0.00272552557355696
0.00261306780458262
0.00250395841325968
0.00241505207458436
0.00237147005662365
0.0023712145828441
0.00241813424127587
0.00252844890505415
0.00270313788221001
0.00286370787729086
0.00274460603379153
0.00236519315239929
0.00188338817320953
0.00159153568010616
0.00196800770531554
0.00190214812971126
0.00168636992706941
0.00105827580004124
0.000573927121819274
0.000497343899233687
0.000681710095485334
0.00086734427931121
0.000887272716389625
0.000879785004762551
0.000881995592134163
0.00088922385308979
0.000905540421159123
0.000940035322809648
0.0010050195378184
0.00110397815099751
0.00123386452417445
0.00138944933785383
0.00156763842006744
0.00176261484398478
0.00196666291022135
0.00217391859924851
0.00238034844884076
0.00257774620457322
0.0027592532738857
0.00293085110702609
0.00311727979142296
0.00336431478319616
0.00370899975937212
0.00404581414596186
0.00431333837821835
0.00454026405769118
0.00473867098354081
0.00491295574888133
0.0050663783001813
0.00520144291231647
0.00532023437155474
0.00542410593379599
0.00551420683765772
0.00559151144956683
0.00565691208183233
0.00571124316273117
0.00575530485026348
0.00578986769408952
0.00581567614827513
0.0058334466225361
0.00584386563836833
0.00584758682711999
0.0058452286770074
0.00583737264300489
0.00582456181873465
0.00580730046512412
0.00578605398680014
0.00576124961665189
0.00573327725798188
0.00570248987587956
0.00566920613528625
0.00563371207975078
0.00559626330979306
0.00555708824730814
0.00551638744554817
0.00547433612661677
0.00543108675139335
0.00538676887916331
0.00534149116519029
0.00529534268478846
0.00524839381141071
0.00520069686964484
0.00515228651770658
0.00510317981636624
0.00505337600081316
0.00500285576750328
0.00495158023264134
0.00489948907746901
0.00484649838493215
0.0047924969315221
0.0047373424286867
0.00468085452771435
0.00462280879235385
0.00456292324072548
0.00450085635899207
0.0044361311994346
0.0043682922899025
0.00429703476395817
0.00422177949277988
0.00414120775620508
0.00405363019920257
0.00395677695707669
0.00384767928715021
0.00372209457515582
0.00357375886161749
0.00337802931247929
0.00321415796810725
0.00322018464398768
0.00333159689030352
0.00347444720571341
0.00360135514461374
0.00369765201394599
0.00376840712638771
0.00382234254043549
0.00385518881461989
0.00386643642349642
0.00385671921705619
0.00382325468795142
0.00375155121570756
0.00364594015897073
0.00352010140678853
0.00338623807081607
0.00325607779431467
0.00315073431996017
0.00310085966841121
0.0031055175223565
0.00316845979771043
0.00330680916040782
0.00352038166920102
0.00371530451934482
0.00357987072182753
0.00311800692337004
0.00251797377909865
0.00213037332739265
0.002513327673989
0.0024077474963994
0.00214672010644423
0.00140370612909676
0.000722649953408777
0.00058899915956795
0.000771969709241921
0.00106159812920763
0.00114669516780179
0.00115465076209323
0.00116161169204489
0.00117002647854666
0.00118625722933583
0.0012228747339481
0.00129605702974611
0.00141052045391688
0.00156206690253601
0.00174384865413503
0.00195152740812782
0.00217784770149617
0.00241384153329706
0.00265313902293481
0.00289149918748684
0.00312042140003443
0.00333382639926956
0.00354027811468544
0.00376831343062434
0.00406769520314802
0.00447248116939618
0.00486510638039876
0.0051799926775756
0.00544806927277075
0.00568239994576682
0.00588825694511815
0.0060696939752243
0.00622965613667811
0.00637049893813993
0.00649381763847497
0.00660095982605544
0.00669307307038041
0.00677120733723662
0.0068363438012904
0.00688942159772633
0.00693134388800184
0.00696298201506514
0.00698517371166874
0.00699872114985688
0.00700438775579269
0.00700289572812956
0.0069949240117111
0.00698110683069632
0.00696203320222423
0.00693824696579087
0.00691024776108732
0.00687849105983681
0.00684338996038622
0.00680531771324501
0.00676460959521959
0.00672156535604571
0.00667645263155761
0.00662950680985023
0.0065809336650373
0.00653091208497144
0.00647959436359451
0.00642710827061719
0.00637355853940474
0.00631902790383599
0.00626357784492613
0.00620724902146359
0.00615006133832477
0.0060920136524126
0.00603308294096173
0.00597322303754723
0.0059123624997308
0.00585040198377303
0.00578721003792561
0.00572261847729672
0.0056564145800738
0.00558833345260461
0.00551804335952352
0.00544513971020604
0.00536907620370272
0.00528927410659276
0.00520523856149124
0.00511625276735036
0.00502087474011549
0.00491716393757153
0.00480249518164807
0.00467339777049987
0.00452494833949341
0.00434994281549041
0.00412101410791393
0.00392411648721013
0.00391529749910961
0.0040345421713357
0.00420074327926091
0.00435795053311264
0.0044848706115188
0.00458395549452809
0.00466335227332562
0.00471800042362225
0.00474619678612803
0.0047478698442956
0.00471915732507878
0.00464389018131535
0.00452645791726982
0.00438294697951942
0.00422850291538474
0.00407781021845807
0.00395638873111127
0.00390027198273649
0.0039098581855902
0.00398870758279292
0.00415431839500019
0.00440503093263461
0.00463252964359513
0.00448349871060297
0.00394306116880364
0.00322594803444797
0.00273871724523981
0.00311972011045491
0.00296948363270587
0.00265638406340625
0.00181846141489548
0.000900586353835964
0.000685842436754601
0.00084442944199065
0.00122242117689312
0.00140515634584918
0.0014441278313863
0.00146115245275237
0.00147329535763142
0.00149042758455001
0.00152906449235922
0.00160968684317393
0.00173874158125251
0.00191113620325821
0.00211847279484793
0.00235509774567442
0.00261233742602015
0.00288007760580491
0.00315153736456558
0.00342237043482186
0.00368405608853886
0.00393152310119691
0.00417574993061634
0.00444835112147464
0.0048017677700202
0.00526598772548641
0.00571350439158553
0.00607582542328451
0.00638539805949378
0.00665614244502571
0.00689418367631732
0.00710428238870473
0.0072897931242844
0.00745334064994689
0.00759676108618197
0.00772159992794938
0.00782917812675267
0.00792070279311755
0.00799730086207872
0.00806004883968561
0.00810998047542483
0.00814809166520493
0.00817533898402931
0.00819263774755609
0.00820085875886335
0.00820082567110614
0.00819331289034906
0.00817904400054714
0.00815869128158615
0.00813287593385952
0.00810216877680764
0.0080670902166133
0.00802811317118841
0.00798566525625322
0.00794013095095211
0.00789185428050587
0.00784114234141144
0.00778826571016929
0.00773346116478658
0.00767693453627441
0.00761886141415365
0.00755938928311873
0.00749863915128157
0.00743670672915152
0.00737366326077229
0.00730955599386419
0.00724440824030651
0.00717821901039147
0.0071109620584395
0.00704258439424105
0.00697300387284467
0.00690210611029617
0.00682973978402143
0.00675571115288392
0.00667977545970946
0.00660162771610467
0.00652088685984035
0.00643708572015148
0.00634960838177664
0.00625776065692744
0.00616086686942542
0.00605805007852804
0.00594773896490358
0.00582775868536138
0.00569514965288676
0.00554596338564663
0.00537463389108255
0.00517303778633544
0.00491160516961391
0.004681514588334
0.00465452969374975
0.00477725354163541
0.00496373603144017
0.00515049734465873
0.0053094307609849
0.0054395283324351
0.0055476131995816
0.00562756334555364
0.00567625441480489
0.00569261905974575
0.00567152259146988
0.00559527153821346
0.0054682261272206
0.00530871316146827
0.00513483662748816
0.00496438673564398
0.00482734167044082
0.00476483506374625
0.0047787568451712
0.0048724345082147
0.0050634650916791
0.00534872865349348
0.00560688720242467
0.00544700301333368
0.00483318067318164
0.00400202657296358
0.00341283402489212
0.00378513143487898
0.00358623178146977
0.00321424341087013
0.00230271845895013
0.00111758156218935
0.000792289477174659
0.00090955286106281
0.0013420756694911
0.00164857017980694
0.00174015720997855
0.00177521848031351
0.00179506130894467
0.00181513209263346
0.00185635626791782
0.00194392769511515
0.00208664324076264
0.00227894403059246
0.00251104703963243
0.0027759649108778
0.00306365316281494
0.0033629546251747
0.00366675324313632
0.00397069092668271
0.00426644701770104
0.00455006554567044
0.0048346509466816
0.00515413556762924
0.00556243408615109
0.00608475479229481
0.0065857346637279
0.00699504384376234
0.00734600506042861
0.0076532680741192
0.00792375871090176
0.00816285992990616
0.00837430723418706
0.00856098999540312
0.0087249813106009
0.0088680219521713
0.00899160420166077
0.00909708960506885
0.009185747638188
0.00925878832763431
0.00931737173654715
0.00936261375061986
0.00939558512205699
0.00941730968774522
0.00942876118203046
0.00943086053310075
0.00942447377366547
0.00941041039560096
0.00938942291589742
0.00936220742900975
0.00932940317950857
0.00929159404823329
0.00924931129719177
0.0092030357766246
0.00915320033776506
0.00910019271326537
0.00904435912068855
0.00898600517601906
0.00892539869288553
0.00886277262552918
0.00879832615079841
0.00873222686433645
0.0086646125234503
0.00859559234617671
0.00852524791356588
0.00845363366787201
0.00838077695592495
0.00830667758527837
0.00823130674253744
0.00815460528020867
0.00807648102959951
0.00799680526695474
0.00791540752886721
0.00783206930359459
0.00774651465629682
0.00765839949169873
0.00756729456512299
0.00747267158683687
0.00737384574389052
0.00727001504118624
0.00716033459346863
0.00704375655497199
0.00691857249487933
0.00678238829841202
0.00663193302773872
0.00646281070689308
0.0062688555207349
0.00604105728905274
0.00574814168504188
0.00548525269758547
0.0054375576561896
0.00555966782949616
0.00576293305181106
0.00597762994021874
0.00616901174787508
0.00633198542793305
0.0064713456451445
0.00657958384842583
0.00665192247430753
0.00668601237976824
0.00667526633913365
0.0066006053040712
0.00646629137284647
0.00629269019125018
0.00610080230465282
0.00591158583631145
0.00575942293419872
0.00569012881746798
0.00570714325864877
0.00581361278869371
0.00602728407034555
0.00634399585065866
0.00663120785282464
0.00646344258677189
0.00578231707272376
0.0048417502137742
0.00414972818089515
0.00450787099947981
0.00425696870017696
0.00382010786509028
0.00285303028955985