/*--------------------------------*- C++ -*----------------------------------*\
  =========                 |
  \\      /  F ield         | OpenFOAM: The Open Source CFD Toolbox
   \\    /   O peration     | Website:  https://openfoam.org
    \\  /    A nd           | Version:  7
     \\/     M anipulation  |
\*---------------------------------------------------------------------------*/
FoamFile
{
    version     2.0;
    format      ascii;
    class       volScalarField;
    location    "6000";
    object      omega;
}
// * * * * * * * * * * * * * * * * * * * * * * * * * * * * * * * * * * * * * //

dimensions      [0 0 -1 0 0 0 0];

internalField   nonuniform List<scalar> 
15600
(
1974.60613735576
1972.648325243
1984.42791022013
2055.78059759582
2222.67690004102
2356.686868098
2378.42128442444
2300.00018532342
2153.97031116953
1966.45861756929
1762.78479607635
1583.64547894744
1435.67966376577
1312.2349065017
1208.29531934702
1120.03744959636
1041.43040276847
963.351277377799
885.918292649371
810.58135114486
738.629427726828
671.777660481123
614.580438156229
568.667823075621
533.493089366932
508.868650769501
494.93483283514
492.061840314983
493.651539705996
493.651534338166
493.651534338173
493.651534338186
493.651534338214
493.651534338152
493.651534338164
493.651534338193
493.651534338173
493.651534338179
493.651534338187
493.651534338166
493.651534338199
493.651534338138
493.651534338171
493.651534338152
493.651534338165
493.651534338172
493.651534338187
493.651534338193
493.6515343382
493.651534338166
493.651534338172
493.651534338165
493.6515343382
493.651534338165
493.651534338146
493.651534338186
493.65153433818
493.651534338194
493.651534338178
493.651534338193
493.6515343382
493.651534338185
493.651534338193
493.651534338201
493.65153433813
493.651534338152
493.651534338177
493.651534338139
493.651534338172
493.65153433818
493.651534338191
493.651534338182
493.65153433818
493.651534338178
493.651534338194
493.651534338178
493.651534338152
493.651534338152
493.651534338159
493.651534338193
493.651534338166
493.651534338166
493.651534338171
493.651534338213
493.651534338157
493.651534338194
493.65153433817
493.651534338157
493.651534338187
493.651534338165
493.651534338165
493.651539706002
492.061840314982
494.934832835202
508.868650769232
533.493089366357
568.667823075228
614.580438156834
671.777660481449
738.629427726959
810.581351143299
885.918292648864
963.351277377646
1041.43040276902
1120.03744959597
1208.2953193011
1312.23490651725
1435.67966381516
1583.6454790092
1762.78479592733
1966.45861764716
2153.97031128258
2300.00018510395
2378.42128451691
2356.68686814436
2222.67690004416
2055.78059756207
1984.42791022399
1972.64832524326
1974.60613735531
419.738866024336
420.238520389186
454.318487689701
460.40173793895
460.485097184635
465.836174409805
468.660864439358
454.198534287578
426.455769637653
389.856222965498
349.96552878116
314.866204530223
285.864866484106
261.926122050805
242.006671233115
225.199302786557
210.023039525151
194.834386180184
179.578303163403
164.44016371519
149.765783630663
136.290778946783
124.795494348509
115.413733410287
108.244243279196
103.42957809665
101.654994115719
105.120723011256
106.19041477227
104.017629125711
102.533020984209
101.602483977669
100.895897912373
100.368007714966
99.9907312768439
99.7247203604885
99.4717644386067
99.2330283567509
99.0082786887808
98.7977135014942
98.6016261407701
98.4202888541615
98.2538594224586
98.1023952559773
97.9658340472063
97.8440203874843
97.7367086229994
97.6435833653746
97.5642672543873
97.4983335720378
97.4453144803721
97.4047086036628
97.375987387755
97.358601101996
97.3519832548234
97.3555552728253
97.3687235505443
97.3909021887612
97.4215061075262
97.4599081777707
97.5055580084435
97.55785811277
97.6161717327946
97.679940792126
97.7485934421275
97.8215601006737
97.8982798857888
97.9781987492088
98.0607697543219
98.1454534972046
98.2317157928925
98.3190306700791
98.4068740228774
98.4947332480751
98.5820907377312
98.6684522312743
98.7533018163717
98.8361824284574
98.9165706457407
98.99408812528
99.0678682180087
99.1529449755323
99.2717632084981
99.4108692317727
99.5574396925225
99.7210118493286
99.8995975559218
100.118432279706
100.368263213733
100.707912843664
101.173032967444
101.984683702399
100.761713694197
98.2552019547751
100.498117374947
105.003862861468
111.735379177693
120.594160676147
131.647122678818
144.59029985524
158.822019306321
173.898668926721
189.635005975828
205.812666024261
222.685275990337
241.423382390718
263.185124119197
288.840117324608
319.302465973327
355.596547089467
396.467478987421
435.923100782243
468.328911584023
487.939530886944
490.625570041997
479.329585199618
487.783784252191
493.176875456122
478.194870376831
436.694551045029
182.618331289018
174.962225215456
180.083244671193
184.257665869292
169.870748523771
166.321377935766
163.398452900087
159.275781918808
150.561189751624
138.074564186452
124.211232174319
111.845470132223
101.655625367848
93.2346665995282
86.1967552221436
80.1958379159166
74.7197771813489
69.1976420380948
63.658106271257
58.2548780879112
53.1759035900385
48.6376187859739
44.9028494209919
42.0536405170861
40.0827048379651
39.0064552280869
38.8449666840875
39.2089689114957
39.2105950553261
39.0185142595366
39.0028819932237
39.0649724975257
39.1056484441893
39.0845624755634
39.0093018720649
38.963900442579
38.9224455715547
38.8839487856109
38.8471638847855
38.8115337756091
38.7768133339471
38.7429493448999
38.7099742370591
38.6779792309713
38.6470763640287
38.6173918695406
38.5890515736851
38.5621788340646
38.5368885074689
38.5132854051816
38.4914621433283
38.4714978122722
38.4534571548116
38.4373902973652
38.4233323521643
38.4113033010422
38.4013056430587
38.3933385983437
38.387389669626
38.3834054261393
38.381351325716
38.3811703826151
38.3827739129863
38.3860904072565
38.3910323683935
38.3975011577714
38.405390704106
38.4145875345379
38.4249716938658
38.4364180650954
38.4487963885785
38.4619743609449
38.4758161131388
38.4901895898358
38.5049606052303
38.5200116188826
38.5352222825709
38.5505189281306
38.5658149459175
38.5811400060376
38.5962829314813
38.6153150473091
38.6076318429149
38.5823329962129
38.5491434894916
38.5098153848989
38.4631707860522
38.4091473468405
38.3461676472619
38.2616808336809
38.2075561127077
38.1799657385964
37.9578721431168
37.6295069978914
37.9693446635755
39.2307197544914
41.3924743963881
44.3251908110765
47.9955785171597
52.2920227915547
57.1227527115207
62.3178778000137
67.8245749253461
73.601504173971
79.8845448859456
86.8808344992833
94.8981725601769
104.24181065077
115.165557889327
127.757554760783
141.253712077887
154.39198687255
165.129617727871
170.84794974366
170.735485100133
168.755457984748
174.487004404945
187.960894478591
199.757982484775
196.025186093691
106.257026408827
99.6360283888024
103.457729934134
116.068891431228
104.700896481326
83.3245698601101
75.6601497605772
73.8718771612281
70.4995180756555
65.0157647373516
58.808211460593
53.2866894738258
48.7806262324671
45.117478672936
42.0459627904965
39.3411509969254
36.7660891428279
34.1582579855768
31.5765224311012
29.1257263049316
26.9108594611728
25.0196690819283
23.5284620427997
22.4641456531069
21.8368320023304
21.6521951176705
21.843933277815
22.1287244021668
22.1583343390779
22.1396202738752
22.208958667234
22.2977751290114
22.36394584672
22.3847012885401
22.3954299133327
22.4140389731912
22.430909474466
22.4455382104617
22.4573434073757
22.4661765809535
22.4720622649546
22.475136926528
22.4755823838554
22.4736103558578
22.469439911133
22.4632932789908
22.4553875503517
22.4459333664424
22.4351316081171
22.4231725407438
22.4102347268463
22.3964843156798
22.3820747091492
22.3671464724004
22.3518271588191
22.3362313145675
22.3204616397585
22.304613227615
22.2887686857506
22.272986137778
22.2573268680243
22.2418386184275
22.2265501029962
22.2114927787155
22.1966874420174
22.1821459893123
22.1678735604857
22.1538690917062
22.1401262070266
22.1266344384852
22.1133798812316
22.1003475230437
22.0875214771189
22.0748898542743
22.0624434412383
22.050186980335
22.0381324205248
22.0263267418586
22.014827875273
22.0037763706312
21.9932140439773
21.9848465941142
21.9704169383803
21.9408466917536
21.9066497903914
21.8706092814642
21.8330727741258
21.7950182785492
21.7570306175875
21.7171863884518
21.6943510082284
21.7160504610745
21.6328548651855
21.3396352298466
21.2678833924764
21.6954411657106
22.626854425009
23.9666576850499
25.6630031942889
27.6495464660852
29.9055859650505
32.3544839041359
34.9666751722514
37.7295678844281
40.7845666742383
44.1881753732797
48.0324685583865
52.433194908758
57.474009023923
63.0899883640874
68.7871807332627
74.1754882932244
78.4376375748914
80.3969778098177
79.8820459180731
79.19368933799
83.6015704070952
93.2062354420515
107.255038757821
112.138341634593
70.119262042322
66.2240034565718
69.5407389818767
86.108588264646
84.9859308623624
56.3019185125852
43.3771282595381
41.2343654299338
39.4433427840367
36.5432130195724
33.2859527983773
30.4631483582555
28.2204196979125
26.4564882723295
24.9754733648807
23.6191595112394
22.2725405564562
20.9008744671109
19.5478540693171
18.2768429327558
17.1513983144848
16.2188896258353
15.5089489889323
15.0411203920422
14.8356833060169
14.8951589042831
15.1559290049107
15.4280950975841
15.4491291725905
15.4073202951921
15.4437150021504
15.4994530681972
15.5437247217402
15.5706847533245
15.5957627913692
15.6230348532075
15.6478546810369
15.6698557249419
15.6886859077577
15.704293541781
15.7167390435186
15.7261592146547
15.7327205756822
15.736609165873
15.7380153146255
15.7371306029874
15.734142418588
15.7292329497872
15.7225770420768
15.7143415892546
15.7046848484216
15.6937559497242
15.6816947076554
15.6686315536188
15.6546874266124
15.6399741621779
15.6245959219223
15.6086492568596
15.5922215755029
15.5753849331099
15.5582108815543
15.540762233357
15.5230899155735
15.5052444416035
15.4872695330675
15.4692029271748
15.4510777687914
15.4329232818223
15.4147656042771
15.3966288905522
15.3785361842557
15.3605113316822
15.3425799093303
15.3247728884879
15.3071272324697
15.2896936995978
15.2725354784028
15.2557461352706
15.2394407843574
15.2238008115855
15.2089780297902
15.1959323847922
15.1820118000713
15.1619492506965
15.1394690665318
15.1177853897715
15.0983813694259
15.0833732769725
15.0750045652984
15.0766772692774
15.1004958801326
15.1870967841831
15.1724439500453
14.88940781253
14.7150790280194
14.8525086382658
15.3244955135214
16.0676830503602
17.0330844166431
18.1716834165657
19.4744288283678
20.9005530599285
22.429620917303
24.0556807011423
25.8664033881205
27.8861072482637
30.1434952906381
32.6847994069732
35.5391312167984
38.6302914324747
41.6359746766925
44.3824146346414
46.497320276585
47.409019752467
47.076613354861
46.8013716588276
49.8216653489117
55.975212540317
65.9450213915628
71.5910131764188
50.0096483386001
48.0492638296851
50.5557918850535
66.8435435533619
73.5745638044826
47.7931697605898
30.3189538547812
26.9665260175659
25.5527510879997
23.6974260439211
21.7187126577449
20.0767348787581
18.8293487280538
17.8938835474341
17.1094601932635
16.3575052172282
15.5756877938839
14.765292693462
13.9589961971418
13.2019357319903
12.5404937696354
12.0067543221739
11.6169895515992
11.3883804135916
11.340087080971
11.4695187494939
11.7193428249546
11.9425778817954
11.9411327629926
11.8849161642656
11.8989454516335
11.9323624536309
11.9618594361147
11.9859037905393
12.0101384648658
12.0349431536255
12.0576059288474
12.077783470155
12.095202025438
12.1098177008643
12.1216726013991
12.1308698818035
12.1375376738667
12.1418208877639
12.1438694935745
12.1438356864236
12.1418696400202
12.1381184067574
12.1327241854267
12.1258236826041
12.1175475097893
12.1080197204183
12.0973576196638
12.0856716593702
12.0730653746146
12.0596361947282
12.0454755379127
12.0306687074914
12.0152943696723
11.9994208252084
11.9831149184176
11.9664375283097
11.9494416756535
11.9321792695944
11.914697789879
11.8970407618598
11.8792487534203
11.8613600580529
11.8434114840655
11.825439368246
11.8074805272073
11.7895739277416
11.7717619130931
11.754093217315
11.7366244312454
11.7194260060194
11.7025833811314
11.6862099408128
11.6704453374484
11.6554863551541
11.6415356805993
11.6292510514812
11.6177891153096
11.6045640136088
11.5908379199627
11.5792249758369
11.571584083689
11.5704261504408
11.5787309035727
11.6015792959523
11.6491150420693
11.7634334951124
11.7956944574366
11.5634162928904
11.3691445489046
11.3831070026579
11.6389609285111
12.0964514920458
12.7139870387264
13.4523295382991
14.3044639468237
15.2458374584745
16.2614482500495
17.3479054059272
18.564151003608
19.9252157900387
21.4388221228992
23.1233969980826
24.9876953494103
26.9652602678608
28.8322874728477
30.4882558241147
31.7394389689296
32.2749431268617
32.0868569049989
31.9798297562848
34.095545878604
38.3458279032101
45.1241486284504
49.7498817502842
37.7925756341326
36.908634589372
38.7402070798741
52.9131249892452
63.9311646722261
45.1104743172507
24.8547269268098
20.0022949942512
18.5668061800617
17.1838011880135
15.8144287348186
14.7323306889454
13.9521825764061
13.3977687926272
12.9334218534825
12.4657612698464
11.9573657720841
11.4204046474173
10.881747897792
10.3772329792573
9.94329522671715
9.60339590949222
9.36819625780657
9.25211244887733
9.2698330147832
9.41410457127943
9.63261201412981
9.8055092205713
9.78773591862685
9.728799393932
9.7310039478394
9.75127655110886
9.77187970551768
9.79182061609911
9.8125477221157
9.83333510099079
9.85237602469598
9.86933345952953
9.88396928102724
9.89623202931759
9.90614287648316
9.91377586316154
9.91922838696052
9.92261385704836
9.9240519421329
9.9236656765202
9.92157779029623
9.91790943926579
9.9127786275207
9.90629948559396
9.89858166491797
9.88972986393703
9.87984361431998
9.86901714836305
9.85733951975873
9.8448952538216
9.83176372623846
9.81801954647595
9.80373218350989
9.78896364905449
9.773774219128
9.75821983998138
9.74235097341669
9.72621685886568
9.70986373197278
9.69333518484302
9.67667294088929
9.65991752007358
9.64310899147887
9.6262879194654
9.6094963361216
9.59277924915605
9.57618599321837
9.55977284093114
9.54360487346214
9.52776092209401
9.5123359176754
9.49745099943469
9.48325544880747
9.46994961535943
9.45775857857592
9.44719279072415
9.43809910047172
9.42930623731249
9.42128480571878
9.41607428547874
9.41555653937747
9.42229315736951
9.43950770233405
9.47264467394252
9.53074800225301
9.65313653066829
9.71495267226156
9.53883995362478
9.35446971123659
9.31135938426078
9.45045676723903
9.74815111061416
10.1706751858558
10.6857043395195
11.2865035285397
11.9568440614841
12.6853337615826
13.469942019865
14.3528559822312
15.3454670662666
16.4480012766487
17.666681719693
19.0016467585264
20.397249004718
21.6891467486907
22.8088597306494
23.6444401523725
24.010666942489
23.9097293902728
23.8812750881762
25.4191413980447
28.5501159800543
33.4002819139198
36.9937899038955
29.8445095595072
29.521790749845
30.9003371283245
42.4445796007231
56.2801167969432
44.0331734370714
22.8317460130909
16.3114949968131
14.6509838439836
13.4922330368175
12.4424463260675
11.6507855585924
11.1082818036434
10.7422608419064
10.4358072201806
10.1126764735112
9.74865236474504
9.35906754286186
8.96715769444454
8.6027051739697
8.29511850489783
8.06213567764199
7.91130156046149
7.85412547582516
7.90063379905005
8.04021724749408
8.22522529815739
8.35685075359443
8.33002864071701
8.27392430610904
8.27024299573815
8.28288116425385
8.29807484320961
8.31452121328009
8.33187724086003
8.34910757509041
8.36489258757658
8.3789052132648
8.39093083085205
8.40091205448738
8.40885596368856
8.41481718640779
8.41887291697465
8.42111599782916
8.42164641712731
8.42056830463486
8.41798657760495
8.41400551312466
8.40872723282882
8.40225090365461
8.39467211245682
8.38608238212669
8.3765689414043
8.36621460397418
8.35509813019739
8.34329423001136
8.33087319850642
8.31790135554293
8.30444075975175
8.29054776500361
8.27627686978355
8.26167920804789
8.24680186704431
8.23169072678342
8.21638952464871
8.20094018606711
8.18538347037986
8.1697596122325
8.1541090445832
8.13847329211058
8.12289593914517
8.1074240188336
8.09210940608505
8.07701115137263
8.06219752970673
8.0477502897786
8.03376760484363
8.02037239708356
8.00771615603328
7.99599694059674
7.98544753527434
7.97649582047708
7.96927869925686
7.96335602456378
7.95901853684121
7.95786092511297
7.96166883053318
7.9729143784764
7.9948281994602
8.03273777025175
8.09484388259382
8.21636248513038
8.2953820166748
8.16839336438217
8.00494206157995
7.9360816770142
8.00700470733582
8.20629532803442
8.50740228661417
8.88348901864684
9.32791997513614
9.829176536154
10.3783857666584
10.9743612273083
11.6486761883004
12.4107867723892
13.2582594772195
14.1916429197088
15.207164052424
16.2581643980993
17.218857607411
18.0378975189657
18.6452676771163
18.9226946700685
18.8752143210393
18.8868511727556
20.0437964477691
22.4445293256169
26.1003535319211
28.9319727928289
24.3653640624728
24.3329439540838
25.4324233524342
34.4492628620859
49.6147262737866
43.3144083936802
22.6684536365111
14.322054757894
12.2728390604665
11.2026684844562
10.3308380720949
9.70102333291832
9.28810614912151
9.02171792173843
8.79900541290435
8.5557220065127
8.27511592125952
7.97290691135577
7.66967305908655
7.39072570796164
7.16019661436205
6.99181016234372
6.8910545454404
6.86672662391676
6.92488035626307
7.05283752561478
7.20760561305278
7.30768179793584
7.27706450537991
7.22615611599539
7.21993698161196
7.22827249763083
7.24016158675085
7.25400446002135
7.26869241186117
7.28315251038014
7.29635839815033
7.3079992368596
7.31788086648299
7.32594479072421
7.33219120401525
7.3366638487192
7.33942838726349
7.34056574335675
7.3401644685316
7.33831763702105
7.33511968467351
7.33066485487357
7.3250457103728
7.31835227549406
7.3106713930352
7.30208623991257
7.29267609230475
7.2825163117335
7.27167868162017
7.26023101422426
7.24823720387181
7.23575755517224
7.22284860229177
7.2095622298919
7.19594836343575
7.18205411751807
7.16792343369071
7.15359906096171
7.13912211706631
7.12453242436207
7.10986908045116
7.09517107739353
7.08047800072201
7.0658308807606
7.05127314438185
7.03685191215941
7.02261939063979
7.00863500116578
6.99496748944068
6.98169868800407
6.96892674292413
6.95677323595734
6.9453879767641
6.93496376197354
6.9257331683594
6.91807216215623
6.91224420837903
6.90819558788473
6.90622979205743
6.90763146456362
6.91405359861388
6.92782412583761
6.9520668079995
6.99181348045518
7.05454965602835
7.17119135634771
7.25920847110579
7.17199626617547
7.0326133483693
6.95431135937152
6.98385983903173
7.11878501711986
7.3388859908711
7.62193920052971
7.96156054915987
8.3491228672153
8.77757879595853
9.24630796309523
9.77972174953674
10.3859675225852
11.0618329482374
11.8051981724664
12.610518424855
13.4383050412943
14.1893796553956
14.8230839831837
15.2928455213614
15.5187367876606
15.5056271488893
15.5384043168589
16.4330849537682
18.3243506681208
21.185708798731
23.4748624715112
20.4021224696188
20.5206412982392
21.4520852063519
28.3152467397666
43.6162246182835
42.2764227009702
23.5927185951558
13.3665528993331
10.7648564732728
9.68837881180359
8.91486181054028
8.37835597299923
8.03885675639191
7.82732728132265
7.65147630828485
7.45549780101844
7.22688659301212
6.98061820417726
6.73513361760922
6.51224221429418
6.33200736221332
6.20523960207631
6.13591881543592
6.13046224301146
6.19178727700003
6.30618169361989
6.43526280521078
6.51186902811888
6.48087137315006
6.43606574680652
6.42928453425788
6.43538652806514
6.44534641476092
6.45739931790659
6.47014261482916
6.48256162140505
6.49382411260234
6.50364064736307
6.51183733812672
6.51835930625106
6.52320580797363
6.52641633623426
6.52805159343112
6.52818702450648
6.52690582769048
6.52429577243704
6.520446168589
6.51544621732434
6.50938353765971
6.50234327009483
6.49440742329402
6.48565439985299
6.47615877838969
6.46599147872963
6.45521973507641
6.44390686048259
6.43211243933626
6.41989259702392
6.40729992029459
6.39438295843483
6.38118817266614
6.36775950350597
6.35413823452044
6.34036443707341
6.32647683774525
6.3125131733823
6.29851071901984
6.2845068889845
6.27053991646779
6.25664967072606
6.24287858766036
6.22927289271611
6.21588397054831
6.20277033395995
6.18999973020594
6.17765254085095
6.16582510462407
6.15463598107795
6.14423120850668
6.1347968218946
6.12656082607894
6.11986320354482
6.11502080480231
6.11218969644019
6.111725474146
6.11470945158768
6.12265733666817
6.1377353452966
6.16290660168558
6.20284715860618
6.26441194057442
6.37446105065295
6.46614715622655
6.41010400434829
6.29445658589918
6.21562564316799
6.2198323425448
6.31104877184162
6.47452259630491
6.69201283505097
6.95757567935662
7.26449678323854
7.60709754882663
7.98515453436765
8.41801310455531
8.91280119060377
9.46628467814361
10.0751567039757
10.7331664871876
11.4065782778221
12.0155274546778
12.5268181035303
12.9078374015844
13.1016738821245
13.1115249422234
13.1549456628828
13.8622121047095
15.3813528758616
17.6801776567404
19.5724924601859
17.4212166085773
17.6177202428156
18.4447340493472
23.590377433359
38.1785019875265
40.7680166882906
25.0415310269572
13.137008855916
9.81124034424637
8.64623622219188
7.91884277227074
7.43484060805584
7.13650209012658
6.95502085216911
6.80598958389696
6.63946666599478
6.44520047560782
6.23690264957793
6.03118376161394
5.84701342747278
5.70125603188936
5.60254285957501
5.55367925381813
5.55906897235088
5.61925669610184
5.72025831567924
5.82811875122678
5.88751048384278
5.8582718064612
5.81981075244313
5.8136869191756
5.81889350317352
5.82787228046141
5.83880645073543
5.85022558029919
5.86120461578409
5.87105070564851
5.87949951859223
5.88639814552659
5.89169932177376
5.89540604088428
5.89755862063646
5.89821775580118
5.89745821594584
5.89536235642851
5.89201688449667
5.88750992464372
5.88192930211552
5.87536108122421
5.86788864887358
5.85959205958428
5.8505475811656
5.84082755876597
5.83050061009657
5.81963132852397
5.80828035110595
5.79650455346133
5.78435730992715
5.77188850782481
5.75914431532956
5.74616864874453
5.73300301840619
5.71968655758705
5.70625712732044
5.69275138064545
5.67920514177811
5.66565391176159
5.65213345601268
5.63868046830012
5.62533335999259
5.61213316781076
5.59912471503877
5.58635794738682
5.57388977208258
5.56178612578023
5.55012509130802
5.53900021473684
5.52852612545238
5.51884396598208
5.51013229546539
5.50261213705563
5.49659639442005
5.49242048209796
5.49035433770886
5.49080166674509
5.49470909588381
5.50346443114779
5.51907176350654
5.54431065556371
5.58349088814832
5.6429000530807
5.74574443113735
5.83767494607921
5.8056292368125
5.71186117312092
5.63740444508732
5.62638976272695
5.68727273896095
5.80988225438066
5.97945112597591
6.19062817889077
6.43805803222153
6.7171218798638
7.02788351495051
7.38597455338257
7.79767411277479
8.2600240507273
8.76929336835853
9.31909041940512
9.88038206656632
10.3879076955103
10.8141004653729
11.1350069520291
11.3078570200714
11.3333457537569
11.3809944485985
11.9495772569373
13.1879451557059
15.0694625928398
16.6602754390792
15.1075493939682
15.342679412663
16.0986075489587
19.933112011446
33.2510854697259
38.8086526909643
26.56989020356
13.4812606661909
9.25529501659713
7.91825921941046
7.1965978327927
6.73789246024056
6.46030337979444
6.29377835452901
6.15966303509604
6.01195071426186
5.84130827873916
5.65990494111636
5.48270691441987
5.32632030518291
5.20504817810217
5.12584850836429
5.09058408620989
5.10199730688717
5.15889761230846
5.24755698064236
5.33815105597946
5.3850654627743
5.35889654441377
5.32672000865535
5.32203570217187
5.32724715152386
5.33592566588121
5.34627974676522
5.3568805600571
5.36689945052429
5.37575071841211
5.38319769257038
5.3891093978248
5.39344945669907
5.39622828473012
5.39749095915237
5.39730197147137
5.3957390788659
5.39288721712314
5.38883523695815
5.3836730464609
5.37748985047977
5.37037270212118
5.36240558290222
5.35366875431721
5.34423833793873
5.33418633661615
5.32358057802683
5.31248455277803
5.30095759686942
5.28905510625579
5.27682881048254
5.26432687395324
5.25159385832905
5.23867187441498
5.22560062075837
5.21241753725388
5.19915869356931
5.18585898529081
5.17255253839799
5.15927320582499
5.14605514580586
5.13293347360072
5.11994502771793
5.10712925494514
5.09452931920584
5.08219339834466
5.07017641444615
5.05854204426895
5.0473656064074
5.03673731421481
5.02676739299046
5.01759150846244
5.00938046228111
5.00234700404892
4.99678225834245
4.99302299634464
4.99139877627803
4.99234703568641
4.99672142048253
5.00579541561334
5.02141833114518
5.04617963809175
5.08403380810081
5.14075120719388
5.23632263844578
5.32632242930428
5.31252123368866
5.23818528929904
5.17069173048331
5.15106206612048
5.19068719812362
5.28317086176803
5.41677797751111
5.58685206019068
5.7890694922617
6.01965720784692
6.27889260342646
6.57960898817835
6.9273597349004
7.31956500070608
7.75247167401695
8.21986062612731
8.69662863291664
9.12893621492693
9.4936729221114
9.77234451997475
9.93085241520933
9.96692123256869
10.0145125692698
10.477196522858
11.4984124368265
13.0596517478599
14.4135468631132
13.2656342666619
13.5174932444379
14.2181308590279
17.0839026842819
28.809196072683
36.4789751234809
27.8387543966611
14.3178997326212
9.02025271207693
7.4183586505132
6.66552982346984
6.21160650360354
5.94051472376974
5.77884412611855
5.65189071136668
5.51608797507639
5.36206513049455
5.20026456905415
5.04411543300621
4.90821006509884
4.80476404638406
4.73942053086034
4.71327698291347
4.72773256806562
4.78037090650797
4.85806373336162
4.93475065526792
4.97275822360526
4.95044220951791
4.92435986170747
4.9216335151362
4.92747791868216
4.93636183321669
4.94656654126897
4.95675606588066
4.96619557978891
4.97438651479758
4.98112159633452
4.98629277951166
4.98987727260119
4.99189588200237
4.99240157936466
4.99146566410183
4.98917176263733
4.98561007257204
4.98087408739944
4.97505780527636
4.96825394410966
4.9605525094534
4.95203988691745
4.94279820750833
4.93290501667932
4.92243334286913
4.91145143942764
4.90002288218756
4.88820676694115
4.87605796435834
4.86362742242027
4.85096234915562
4.83810632279659
4.82510023909837
4.81198248894993
4.79878920930367
4.78555503553493
4.77231339008601
4.75909691199037
4.74593795307208
4.73286915102579
4.71992407185934
4.7071379571478
4.69454858738654
4.6821973457107
4.6701304736928
4.65840070832613
4.6470692251992
4.63620833361712
4.62590463243198
4.61626372005504
4.60741551899441
4.59952303479654
4.59279010808776
4.58748942670905
4.58395047943658
4.58253088907957
4.58368719549216
4.5882048990001
4.59725666221014
4.61254750414871
4.63647912714502
4.67267070285914
4.72641675317252
4.81491452245386
4.9016308228602
4.90153422056979
4.84405176108859
4.7847220605917
4.76086632383976
4.78560113090523
4.85557161935688
4.96167514047412
5.10000461945431
5.26706612706526
5.45978039116422
5.67858810321993
5.93416848016217
6.23144966600215
6.56824899838761
6.94100391318509
7.34384857364995
7.75504004477353
8.12992649172286
8.44901355855146
8.69718471076795
8.84546196016118
8.88835458888766
8.93277606831525
9.31233462999679
10.162251670733
11.4714157099374
12.6341320946848
11.7687190487583
12.0248014432709
12.6766647455558
14.8449470261499
24.8538910655176
33.8850246030144
28.6945490540959
15.5634350200264
9.07356594755244
7.09981554988579
6.27709006444385
5.8102644942206
5.53462123610581
5.3703243495743
5.24495559022314
5.1161821494807
4.97386683807537
4.82657170622626
4.68623797003504
4.56570076011682
4.47544304617516
4.42005336945925
4.40000699761024
4.41563685596886
4.46369671277002
4.5318633456524
4.59744432984518
4.62924296959343
4.61122954920641
4.59100380606542
4.59058934438684
4.59751973502157
4.60699564425879
4.61739750633894
4.62750358830766
4.636667091483
4.64446352655359
4.65071621505681
4.65534102436296
4.65833102584584
4.65971988624256
4.65957105542395
4.65796510995154
4.65499389495968
4.65075504647219
4.64534871904662
4.63887485503917
4.63143139267986
4.62311285421861
4.61400946584637
4.60420654810446
4.59378434490166
4.58281788822971
4.57137688911165
4.55952592951628
4.54732469795899
4.53482829150194
4.52208755776672
4.50914935503473
4.49605677961501
4.48284998411245
4.46956646009852
4.45624136773445
4.44290820557922
4.42959916756826
4.41634559696934
4.40317848815684
4.39012905790677
4.37722938123681
4.36451312312752
4.35201638173729
4.3397787127595
4.32784434426439
4.31626373208099
4.30509543143084
4.29440862730684
4.28428617548099
4.27482897264623
4.26616111707454
4.25843791670254
4.25185405925071
4.24666602574309
4.24319173108125
4.24179818473806
4.2429489380261
4.24737602664271
4.25616316444791
4.27088241246364
4.29375475330277
4.32808737269233
4.37873439931866
4.46048373004097
4.54310774495951
4.55316021291962
4.51005244879312
4.45923462755667
4.43407816797917
4.44849418394447
4.50151439342537
4.58629987760051
4.69970765541681
4.83894161928191
5.00150546113539
5.18796853728843
5.40732409414804
5.66396246748522
5.95608326596373
6.2804251942288
6.63158575350563
6.99076173143071
7.32086957317452
7.60535989384239
7.83103629580479
7.97163340816494
8.01835484331346
8.05715926725156
8.36990250926513
9.08249574893236
10.1894416064737
11.1947607705177
10.5313730492363
10.7844009872003
11.3897131108517
13.0657082810085
21.3929989612259
31.1465548850895
29.0813995474951
17.0937004936484
9.40778460301983
6.93989092339462
6.00259375487068
5.50545168626959
5.21568653575311
5.04260794544871
4.9143698743201
4.78884282591597
4.65453210387078
4.51796737497024
4.38960344388388
4.28070156362911
4.20027787772442
4.15205833488588
4.13601436755841
4.15164748082126
4.19518243308211
4.25520588455365
4.31199758892542
4.33963766155695
4.32616720853089
4.31155366802282
4.31369757165534
4.32205308656266
4.33242420140977
4.34330482219311
4.35359328977572
4.36272427390104
4.37033848051233
4.37629069028985
4.38052164981077
4.383042277882
4.38390123250511
4.38317465203167
4.38095449348655
4.37734281026949
4.3724465113206
4.36637410316591
4.3592330169677
4.3511278252984
4.34215885430278
4.33242134693878
4.32200493076956
4.31099349079787
4.29946490497125
4.28749116905394
4.27513860805059