/*--------------------------------*- C++ -*----------------------------------*\
  =========                 |
  \\      /  F ield         | OpenFOAM: The Open Source CFD Toolbox
   \\    /   O peration     | Website:  https://openfoam.org
    \\  /    A nd           | Version:  7
     \\/     M anipulation  |
\*---------------------------------------------------------------------------*/
FoamFile
{
    version     2.0;
    format      ascii;
    class       volScalarField;
    location    "6000";
    object      p;
}
// * * * * * * * * * * * * * * * * * * * * * * * * * * * * * * * * * * * * * //

dimensions      [0 2 -2 0 0 0 0];

internalField   nonuniform List<scalar> 
15600
(
0.885256302209725
0.892702510492149
0.881795857917957
0.923906180179135
0.963173598266537
0.986717921677236
0.997993363879232
1.00667608229902
1.01162335551724
1.01584173360215
1.01879358899834
1.02116939229474
1.02305925769441
1.0245680452696
1.02581272398766
1.02695484068885
1.02825535695243
1.02974237979114
1.03146931759794
1.03346390603888
1.03566841313429
1.03782940996891
1.03988381914752
1.04187312774177
1.04368031035185
1.04527917948635
1.04673264920942
1.04629336448824
1.04696778822969
1.04993794822532
1.0539873768987
1.05892832870644
1.06448346929132
1.07052085361047
1.076913769921
1.08357243002587
1.09041646181394
1.09737818147732
1.10439764156304
1.11142274194303
1.11840813181985
1.12531491469899
1.13211027032878
1.13876704718912
1.14526337969944
1.15158221196312
1.15771084279478
1.16364042627107
1.16936549784814
1.17488350347764
1.18019436100707
1.18530005198451
1.19020425204255
1.19491199942211
1.19942940543378
1.20376340060633
1.20792152454799
1.21191172821996
1.215742245339
1.21942145974166
1.22295786098017
1.22635988223991
1.22963585813411
1.23279404884766
1.23584255439327
1.23878932682634
1.24164215532354
1.24440867514787
1.24709637968414
1.24971263910107
1.25226473125036
1.25475986871761
1.25720525168724
1.25960809693291
1.26197572833565
1.26431558908678
1.26663541422555
1.26894316868735
1.27124742336109
1.27355703694761
1.27588211071309
1.27823267786044
1.28062133491805
1.28306059255986
1.28556852615453
1.28815899305532
1.29085948398625
1.29368308743475
1.29667832746593
1.29984553005973
1.30328650132877
1.30691976599246
1.31103702335723
1.31581343891315
1.31959808274599
1.32347317147563
1.32700093491503
1.33025535671436
1.33305761422723
1.33521359434813
1.33621052700918
1.33595558313096
1.33411503327296
1.33058351978839
1.32509855835122
1.31849921656109
1.31055597351491
1.30066911198382
1.28820173353376
1.27172169423593
1.24845880304942
1.21195348154317
1.1601163715254
1.09077757082416
0.994659293114218
0.878228223723349
0.760455272428004
0.753212741052766
0.791186421667966
0.860572661785222
0.885280738088663
0.892843832416677
0.882032235280079
0.92347074612148
0.962457472276609
0.986184051723355
0.997633433110368
1.00641299303715
1.01144416689608
1.0157024760451
1.01869683566802
1.02109927914942
1.02301170192132
1.02453825479519
1.02579420557026
1.02693661880346
1.02822789920568
1.02970201439254
1.03141277472297
1.03339115454807
1.03558689915356
1.03774898941044
1.0398068842805
1.0418009548891
1.04361473780566
1.04522263562019
1.04668709496969
1.04627507146144
1.04699663012251
1.049979049324
1.05403055365073
1.05897266742692
1.06452700823815
1.07056266606635
1.07695308918836
1.08360868808624
1.09044918253368
1.09740707820391
1.1044225391348
1.11144356779606
1.11842489821989
1.12532770581878
1.13211922869867
1.13877236128676
1.14526527242242
1.15158093018577
1.15770664824016
1.16363358766006
1.16935628438823
1.17487217959024
1.18018118222663
1.18528526187723
1.19018808003685
1.19489465940053
1.19941109504432
1.20374430018409
1.20790179186742
1.2118915452896
1.21572183740678
1.21940098747623
1.22293738389163
1.22633944936444
1.22961553661024
1.23277389550806
1.23582261714235
1.23876964529482
1.24162276154393
1.24438959419586
1.24707763026118
1.24969423405333
1.2522466780471
1.2547421698383
1.25718790501314
1.25959109597767
1.26195906261132
1.26429924409557
1.2666193719817
1.26892740719424
1.27123191789849
1.27354175793367
1.2758670309925
1.27821775468023
1.28060651793135
1.28304582870336
1.28555379158203
1.28814423722689
1.29084472412954
1.29366826414174
1.29666361106217
1.29983085905048
1.30327281918996
1.30690570488419
1.31102468623726
1.31582265047755
1.31962323722217
1.32351530910084
1.32705054111372
1.3303029330654
1.33308743708277
1.33520153882745
1.33613641502161
1.33580611420249
1.33387996176205
1.33025877908732
1.32470495135598
1.31804943517161
1.31002633103847
1.30002834329067
1.28739845876191
1.27065680201769
1.24694773776076
1.20989873308365
1.15758105291737
1.08781811919475
0.991782653716716
0.876622866188549
0.761517323023615
0.754720249294854
0.791779628095363
0.860675474154385
0.885384941515552
0.893232343676688
0.882812798785558
0.923486953845675
0.96187085388354
0.985727359274151
0.997311137204635
1.0061740703646
1.01127829579932
1.01557138183092
1.01860413783894
1.02103210602727
1.02296645603127
1.02451073554108
1.02577881882694
1.02692282846594
1.02820365445156
1.02966047417814
1.0313472865532
1.03329718836446
1.03546656753354
1.03761181304096
1.03965734400234
1.04164151279863
1.04345034653796
1.04505556321096
1.0465198382191
1.04619129855022
1.04701576837935
1.05001058990685
1.05405884615329
1.0589965568128
1.06454405298583
1.07057252758432
1.07695543090429
1.08360346424777
1.0904364404349
1.09738710121057
1.10439571072092
1.11141036331006
1.11838585551168
1.12528340647758
1.13207027841308
1.13871937337658
1.14520885373987
1.15152166947956
1.15764510718479
1.16357029413638
1.16929172794872
1.17480680871783
1.1801154031756
1.1852194387217
1.19012253572805
1.19482967756111
1.19934692225613
1.20368114596793
1.20783987711214
1.21183102289954
1.21566271402151
1.21934330084291
1.22288124890943
1.22628496138725
1.22956276242388
1.23272288639472
1.2357734120996
1.23872227280286
1.24157724118623
1.24434593823235
1.24703584503711
1.24965432128694
1.25220863606958
1.25470599466256
1.257153591524
1.25955863879607
1.26192845747042
1.26427048837396
1.26659246680569
1.26890235705261
1.27120873499693
1.27352045904906
1.27584763989171
1.27820032494973
1.28059113515755
1.28303254390268
1.28554273314451
1.2881355129662
1.2908386302562
1.29366494295532
1.29666373534627
1.29983440393147
1.30328133820904
1.30691809806152
1.31102831498594
1.31582908127426
1.31962518092912
1.3235201217363
1.32704828739519
1.33028609778775
1.33304023004056
1.3351036373869
1.33597423414411
1.33557268580608
1.33357007235689
1.32987513516528
1.324268536517
1.31756189897705
1.30945741713807
1.29934661044261
1.28655292689634
1.26955453144163
1.24545175691808
1.20800280212998
1.1554331075801
1.0856428401676
0.990406185495879
0.877615081623899
0.76589620260259
0.758632511950201
0.793411637999442
0.860986450146622
0.885613622224886
0.893917697646325
0.884260795004213
0.924171329410695
0.961456626494795
0.985334365214875
0.997009676656849
1.00594566661202
1.0111176565381
1.01544122866937
1.01851035873116
1.02096432713264
1.02292178599852
1.02448530943879
1.02576736429156
1.02691412315996
1.02818128122491
1.02961363451131
1.03126572225478
1.03317250809103
1.03529706447258
1.03740907958854
1.03942971874751
1.04139386372692
1.04319195442368
1.04479134963947
1.04625600097094
1.04607222684674
1.04703789443285
1.05003906902375
1.0540752940641
1.05899923503675
1.06453074529178
1.07054359898089
1.07691128975232
1.08354497497623
1.09036442747742
1.09730259755652
1.10429982789279
1.11130428611091
1.11827080345638
1.1251606100701
1.13194095347888
1.13858470010649
1.14506995938681
1.15137961482944
1.15750087710607
1.16342479146435
1.16914577056225
1.17466112912083
1.17997065024016
1.18507618097478
1.18998126587748
1.19469081782562
1.19921082948048
1.20354813113835
1.20771014048384
1.21170469529172
1.2155399780596
1.21922431615366
1.22276611639422
1.22617375468667
1.22945552966993
1.23261965745376
1.2356742026414
1.23862708758219
1.24148607688245
1.24425878619858
1.24695269379487
1.24957515885706
1.25213345227871
1.25463478324174
1.25708635250142
1.2594953804807
1.26186919941207
1.26421526316139
1.26654132459408
1.26885536646411
1.27116599173434
1.27348208378451
1.27581378674268
1.27817125072411
1.28056716673802
1.28301394111884
1.28552991955432
1.28812894531475
1.29083911979152
1.29367313482344
1.29668113968807
1.29986148752436
1.30332037551198
1.30696933732548
1.31105633794675
1.31582605456562
1.31958898763223
1.32346474225443
1.32696406957395
1.33016825573535
1.33287248735636
1.33486854125484
1.33566428798657
1.33518617767744
1.33310600226397
1.32934210985498
1.32369031148342
1.31693252425467
1.30873969898167
1.29850515785522
1.28553164399426
1.26825804072001
1.2437682682764
1.20598873568916
1.15329019634901
1.0836904262886
0.989634898823076
0.87985224868012
0.772165233040661
0.764454626946253
0.796297216342909
0.861632735961114
0.885964653313176
0.89483050422921
0.886112919073305
0.925321188671697
0.961307670069466
0.985022240614662
0.996720258009951
1.00570923177195
1.01095153847875
1.01530564543337
1.01841191213034
1.02089440810376
1.02287813655427
1.02446435060002
1.02576362173226
1.02691486005566
1.02816567479935
1.02956773403185
1.03117700322829
1.03303106272781
1.03510043161407
1.03717139690945
1.03916219955257
1.04110346978869
1.0428909648421
1.04448831385748
1.0459594939132
1.0459434916212
1.04705451824736
1.05005905184035
1.0540805165855
1.05898537022125
1.06449557429397
1.07048774647748
1.07683550631579
1.08345046750273
1.09025248900409
1.09717469830852
1.10415751123313
1.11114915733503
1.11810448800362
1.12498472607199
1.13175708342547
1.13839436728038
1.14487460895603
1.15118059914448
1.15729944588147
1.16322208577434
1.16894282058503
1.17445885475398
1.17976986420486
1.1848775936793
1.18978549167494
1.19449838200678
1.19902217630697
1.20336362284477
1.20753007944026
1.21152935871402
1.21536959585357
1.21905904797167
1.22260607042882
1.22601900775582
1.22930613434635
1.23247564500777
1.23553558812093
1.2384938740201
1.24135825898257
1.24413635389517
1.24683563552364
1.24946346464628
1.25202711684069
1.25453380884638
1.25699075225738
1.25940518117289
1.26178444560694
1.26413601997956
1.26646768392787
1.26878744894298
1.27110395808073
1.27342613432107
1.2757641760048
1.27812833477269
1.28053146042398
1.28298589509965
1.28551013295247
1.288118088453
1.29083830741638
1.29368328998522
1.29670416404253
1.29989808196039
1.30337253511302
1.30703779460312
1.31109523933392
1.31581527293358
1.31952623182627
1.32336467211066
1.32681614898865
1.32996884932335
1.33260414045937
1.33451428789077
1.33521873659999
1.3346503079607
1.33248136802263
1.3286412857492
1.32293987619918
1.3161242492686
1.30783160461308
1.2974563465214
1.28427805296869
1.26669547248405
1.24178745727274
1.20367108891088
1.15086300140306
1.0815168731917
0.988772628643334
0.882218424464095
0.778794707890849
0.77088925878455
0.799806794246774
0.862521992691188
0.886437289411631
0.895908754884944
0.888148799260843
0.92666646372869
0.961463228672968
0.984826107097021
0.996488891007429
1.00546572124967
1.01077861135016
1.01516611157565
1.0183115417239
1.02082572841508
1.02283933148057
1.02445181759862
1.02577107009024
1.02692788297349
1.02816038579174
1.02952821824704
1.03108953081728
1.03288532612119
1.03489384114594
1.03691919586592
1.03887700121824
1.04079371050385
1.04257031889103
1.04416766038135
1.04564810521167
1.04580376498417
1.04705608732197
1.05006656389719
1.05407588698147
1.05896021849134
1.06444718597041
1.07041631393973
1.07674172068849
1.08333560915014
1.09011803551648
1.09702230909365
1.10398894009
1.11096622293519
1.11790903005844
1.1247785720233
1.13154201790605
1.13817210581844
1.14464677761951
1.15094871856274
1.15706492079704
1.1629861986893
1.16870672954132
1.17422359422669
1.17953634869741
1.18464662325063
1.18955775895444
1.19427447975812
1.19880260975302
1.20314881073145
1.20732038255808
1.21132508031222
1.21517096115084
1.21886622995681
1.2224192005926
1.22583818223538
1.22913142128726
1.23230708819963
1.23537321279356
1.23833769152271
1.24120827097229
1.24399255634688
1.24669802242998
1.24933203151646
1.25190186419022
1.2544147454486
1.25687789881739
1.25929857352094
1.26168413922283
1.26404209308077
1.26638024418285
1.26870663565387
1.27102995411088
1.273359166023
1.2757045305888
1.27807638591962
1.2804877560016
1.282950952991
1.28548459422053
1.28810261178354
1.2908339785128
1.2936909201253
1.29672539206294
1.2999331774411
1.30342185143483
1.30710139615024
1.31112844134351
1.31579615163543
1.3194484103839
1.32323891368605
1.32662957152715
1.32971760719321
1.3322700304973
1.33408056193468
1.33468037315247
1.33400943759231
1.33174113576797
1.32781649213566
1.32205766329388
1.31517490198351
1.30677040494428
1.29623833727018
1.28283290210305
1.26491308860291
1.23956066987796
1.20109668558358
1.14818816410202
1.07914235108504
0.987804301626698
0.884582445606402
0.785482588337069
0.777521211037005
0.803632020028024
0.863619253584478
0.887035687100014
0.897122166769044
0.890302692807445
0.928132604490013
0.961861880373402
0.984719957117278
0.996373487837782
1.00523483324891
1.01060360150853
1.01502682777253
1.01821336864009
1.02076158970029
1.0228077008424
1.02444877861844
1.02578944012937
1.02695217702116
1.02816511450964
1.02949633297676
1.03100646761927
1.03274047361539
1.03468407448667
1.03665981648329
1.03858128722773
1.04047117530999
1.04223537813625
1.04383329933107
1.04532373971123
1.04565175584242
1.04704153091946
1.05006113175217
1.05406165121169
1.05892518726995
1.06438815101317
1.07033281455608
1.07663432417678
1.0832055672626
1.08996690235085
1.09685183851411
1.10380101158435
1.1107627891774
1.11769207223396
1.12455005967626
1.13130387644935
1.13792618733011
1.14439483900224
1.15069240411644
1.15680575092155
1.16272556289141
1.16844588391541
1.17396366226277
1.17927832497946
1.18439137926838
1.18930605038965
1.19402695569774
1.19855982146695
1.20291122339963
1.20708838409217
1.21109898245269
1.21495101094446
1.21865262403132
1.22221209054233
1.22563768081169
1.22893760976865
1.23212002100491
1.23519292375333
1.23816419889421
1.24104158200604
1.24383267161382
1.24654493981817
1.2491857499992
1.25176238756051
1.25428208578818
1.25675208036491
1.25917963601971
1.26157214257636
1.26393712049228
1.2662824088968
1.26861608301212
1.27094687325182
1.273283789447
1.27563715303743
1.27801737479186
1.28043763944978
1.28291025439764
1.28545394436154
1.28808259546127
1.29082555100663
1.29369466994548
1.29674251802786
1.29996337364976
1.30346375019157
1.3071541240429
1.3111501427901
1.31576625116852
1.31935781565646
1.32309388814105
1.32641437015594
1.32942742688744
1.33188613333142
1.33358663467989
1.33407151896245
1.3332883383674
1.3309120970418
1.32689567728194
1.32107151349911
1.31411180037799
1.30558393697369
1.2948807742408
1.28122938027975
1.26295088194498
1.23713823777924
1.19832605399386
1.14533539410207
1.07664475186065
0.986811192476432
0.887000709889717
0.792219884425558
0.78427049754647
0.807690890898888
0.864918262340549
0.887756146862689
0.898449343628892
0.892538884083413
0.929695215754186
0.962393814162908
0.984674413424887
0.996381781603026
1.00504534883161
1.01043292009724
1.01489082878388
1.0181197346238
1.020703145307
1.02278328102347
1.02445421331693
1.0258169896964
1.02698587576131
1.02817863991527
1.02947182463152
1.03092857009181
1.0325982074833
1.03447356798386
1.03639605073628
1.03827793139867
1.04013865189836
1.04188866324182
1.04348781425439
1.04498899557718
1.04548904805008
1.04701192068464
1.05004344546981
1.05403839209935
1.05888128536041
1.0643199814781
1.07023921199414
1.07651572231657
1.08306312699002
1.08980220222042
1.09666667669454
1.10359734675961
1.11054266307245
1.11745756561039
1.12430324502414
1.13104678406863
1.13766077329556
1.14412296198207
1.1504158064794
1.15652604651596
1.16244422925425
1.16816425924501
1.17368294589785
1.17899958093039
1.1841155420258
1.18903393223941
1.19375925789554
1.19829713993587
1.20265405990881
1.20683715668977
1.21085403126174
1.214712611273
1.21842099552434
1.22198740308803
1.22542006245154
1.22872715440161
1.23191679340885
1.2349969662138
1.23797553648793
1.24086022748287
1.24365862997822
1.24637821256373
1.24902633908598
1.25161029932987
1.25413733458386
1.25661469251473
1.25904965325849
1.26144962671678
1.26382215651597
1.26617511153642
1.26851659855459
1.2708553907067
1.27320053938805
1.27556242723077
1.27795152491168
1.28038115834096
1.28286363869345
1.28541778739555
1.28805738904316
1.2908120885845
1.29369328821848
1.29675394153705
1.29998672567778
1.30349618929355
1.30719378520549
1.31115768664973
1.31572295749416
1.31925319539465
1.32293030992035
1.3261732270148
1.32910246740714
1.33145799567581
1.33303944963396
1.33340043697161
1.33249629674937
1.33000429082438
1.32588915494414
1.31999142255523
1.31294434694673
1.30428139489828
1.29339316979544
1.27947822173579
1.2608225959932
1.23453902792874
1.1953838776583
1.14233513270213
1.07405926532311
0.985829091401227
0.889493335131767
0.798990491401259
0.791078698213559
0.81191808810142
0.866392150460837
0.888593342829266
0.899873312566063
0.894830995239737
0.931303288094047
0.962997649215381
0.984693298292587
0.996463617100428
1.00492708778502
1.01027377637113
1.01475946639389
1.01803117464042
1.02065008755352
1.02276507722864
1.02446663375559
1.02585205454173
1.02702748803192
1.02820001189345
1.02945443614237
1.03085628399453
1.03245965332921
1.03426407174173
1.03613007902301
1.03796935175997
1.03979870550469
1.04153280193227
1.04313412124127
1.04464704413144
1.04531751609368
1.04696826046131
1.0500142938281
1.05400686021761
1.05882960902329
1.06424418327943
1.07013739954507
1.07638818189891
1.0829108784459
1.08962680906542
1.09646994042055
1.10338126650562
1.11030933121364
1.11720912601329
1.12404183844919
1.1307745134609
1.13737966911875
1.14383495794859
1.15012271927805
1.15622956268451
1.16214589651343
1.1678654828256
1.1733849885068
1.17870356589496
1.18382245877442
1.18874464442105
1.19347451285196
1.19801757549072
1.20238021557385
1.20656948306015
1.21059289975293
1.21445832379507
1.21817379435239
1.22174747758101
1.22518755741601
1.22850217805951
1.23169942267611
1.23478725360677
1.2377735156085
1.24066591815682
1.24347204303511
1.24619935425792
1.24885521523271
1.25144691934672
1.25398171521083
1.25646686184297
1.25890965416508
1.26131752145398
1.26369802967491
1.26605907630903
1.26840879818502
1.27075600885758
1.27310979803704
1.27548060612974
1.27787895097644
1.28031827777929
1.28281089803899
1.28537571685566
1.28802636787184
1.29079271836723
1.29368562504275
1.2967582019396
1.30000144990749
1.30351724375279
1.30721822255448
1.31114871084426
1.31566405250111
1.31913294798638
1.32274782795187
1.32590725969667
1.32874498145018
1.33098887641053
1.33244317812487
1.33267210322656
1.3316388840882
1.3290236564264
1.32480282894517
1.31882281791404
1.31167733728773
1.30286712485586
1.29177966817814
1.27758398763708
1.2585344668493
1.23177240825185
1.19228330588169
1.13920487619725
1.0714073253207
0.984879492392156
0.892067452492056
0.805777919064262
0.797907333200623
0.816269437895741
0.868017066342334
0.889543791863687
0.901381255704822
0.897166940172635
0.932902819963684
0.963657301173187
0.98480257400175
0.996554731514552
1.00490491390933
1.01013652498574
1.01463402119326
1.01794777395086
1.02060189904412
1.0227521478875
1.02448487020274
1.02589346592566
1.02707604960584
1.02822869058375
1.02944415372945
1.03079012829144
1.032325850236
1.03405712273175
1.03586378889991
1.03765762744798
1.03945355495606
1.04117010301406
1.04277469836482
1.04430046363495
1.04513870253866
1.04691151980388
1.04997446799665
1.05396776941697
1.05877115284528
1.06416209590434
1.07002905204489
1.07625370213028
1.08275110594746
1.08944326066583
1.09626438615573
1.10315571274117
1.11006588755257
1.11694996737502
1.12376914312892
1.13049042827389
1.13708627233628
1.1435342342136
1.1498165380706
1.15591966433694
1.16183388262655
1.16755281184767
1.17307297504062
1.17839338324939
1.18351514395451
1.18844110758488
1.19317554296087
1.19772384855601
1.20209230745393
1.20628787713699
1.21031799731197
1.21419045319441
1.21791322152485
1.22149441297777
1.22494216445647
1.22826458123649
1.23146971305731
1.23456549594309
1.23755975395897
1.24046018122783
1.24327434910657
1.24600971574316
1.24867364292674
1.25127342654489
1.2538163214794
1.25630959703343
1.25876056180391
1.26117666315985
1.26356548792506
1.26593496022942
1.26829324456401
1.27064919144372
1.27301192434121
1.27539193577791
1.27779977787327
1.28024899143035
1.28275187648275
1.28532740366818
1.28798901055922
1.29076669939211
1.29367069479146
1.29675404222792
1.30000600444381
1.30352524690758
1.30722558234878
1.31112118485732
1.31558753729583
1.31899533162304
1.3225455333567
1.32561674086293
1.32835624023646
1.33048096138518
1.33180081770086
1.33189024194543
1.33072039948859
1.32797487113312
1.32364137812646
1.31756999509112
1.31031455411118
1.30134451586873
1.2900434506029
1.27555023711241
1.25609159750376
1.22884640502603
1.18903610678564
1.13596103829936
1.06870994664836
0.983984408568251
0.894733336509677
0.812574907480638
0.804736452481305
0.820722859997849
0.86977979009188
0.890606246622427
0.902963839865152
0.899542450314285
0.934451156746744
0.96435853682719
0.985013774623628
0.99662956451849
1.00498767492827
1.0100362302306
1.01451689371564
1.01786986456131
1.02055832505493
1.02274387617295
1.02450812637516
1.02594043811686
1.02713093735497
1.02826437466777
1.02944108087109
1.03073061970787
1.03219771973013
1.03385404031208
1.03559878940166
1.03734453319811
1.03910510910231
1.04080257836917
1.04241164746196
1.04395136754171
1.04495397715385
1.04684272750714
1.04992479976918
1.05392180622901
1.05870681983337
1.06407490489728
1.06991564263048
1.07611403764363
1.08258581486088
1.08925378746451
1.09605243947085
1.10292327709762
1.10981506015671
1.11668292554396
1.12348807504817
1.13019749862979
1.13678358311043
1.14322379906286
1.14950025966247
1.15559931957082
1.16151111210776
1.16722911463668
1.17274970717708
1.17807175944906
1.18319624294079
1.1881258801137
1.19286481514303
1.19741833354814
1.20179261515719
1.20599452307405
1.21003141239535
1.21391099303381
1.21764117694226
1.22123001700222
1.22468560082849
1.22801599255902
1.23122920646332
1.23433315033272
1.23733562570841
1.24024430967691
1.24306676158322
1.24581043221832
1.24848268033195
1.25109080292288
1.25364205976153
1.25614372898351
1.25860313131248
1.26102773040691
1.26342513188878
1.26580328386488
1.26817037530854
1.27053528919311
1.27290717706895
1.27529657590014
1.27771405890399
1.28017323741532
1.28268638256962
1.28527250607869
1.28794480745378
1.29073333152981
1.29364758797273
1.29674032895971
1.29999902595029
1.30351876748644
1.30721434125273
1.31107338875123
1.31549149910789
1.31883840749902
1.3223219783011
1.3253011382701
1.3279365702796
1.32993540307755
1.33111424827473
1.3310573998868
1.32974394450276
1.32686141644999
1.32240831224357
1.31623616565961
1.30885880945913
1.29971606807694
1.28818686608717
1.27337975326947
1.253498324053
1.22576824926933
1.18565334387679
1.13261952865394
1.06598781730269
0.98316556587347
0.897502349424069
0.819378240863952
0.811553842586911
0.825266021181678
0.871673421736529
0.891781079274806
0.904614378690762
0.901955417691463
0.935921399078969
0.965085682770463
0.985315112790373
0.996703897540473
1.00515918212576
1.00999201656334
1.01441240742834
1.01779821895102
1.02051941091707
1.02273992757569
1.02453586839854
1.02599241908752
1.02719172222297
1.02830688953292
1.02944537438578
1.03067826103796
1.03207610698359
1.03365601834587
1.03533654421288
1.03703170191341
1.038755143453
1.04043211769108
1.04204688628165
1.04360163004866
1.04476462303759
1.04676295768145
1.04986616787638
1.05386966825162
1.05863748536787
1.06398372530401
1.06979854448945
1.07597081658788
1.08241686384066
1.08906045662555
1.09583634912226
1.10268636327636
1.10955938024834
1.11641063252141
1.12320134107673
1.12989848180462
1.13647438639058
1.14290644439386
1.14917666432523
1.15527128068144
1.16118029513649
1.16689704726208
1.17241777688958
1.17774121427025
1.18286819782842
1.18780132027321
1.19254460066606
1.19710321234523
1.20148322995566
1.20569142094215
1.20973505411212
1.21362176223938
1.21735939048498
1.2209559319209
1.22441942284264
1.22775788418495
1.23097929277966
1.23409152627642
1.23710236181456
1.24001945766319
1.2428503594266
1.24560250886209
1.24828326003189
1.2508999093862
1.25345971988954
1.25596997669152
1.25843801068133
1.26087129951241
1.2632774649975
1.26566447586777
1.26804054165663
1.27041457230284
1.27279574071577
1.27519461876791
1.27762178708088
1.28009090133668
1.28261418234274
1.28521065199238
1.28789323178606
1.2906919134602
1.29361541363063
1.29671597539472
1.29997922995109
1.30349647947359
1.30718312933784
1.3110037688339
1.31537407367392
1.31866011467746
1.32207534190944
1.32495932644373
1.32748558084098
1.32935256542976
1.33038449828976
1.33017522334916
1.32871169421034
1.32568583411134
1.32110620719907
1.31482366668919
1.30731213800176
1.29798358996208
1.28621165141018
1.27107479638466
1.25075850668391
1.22254469206509
1.1821456316514
1.12919584008715
1.06326103702461
0.982443517926427
0.900384978004632
0.826185494137145
0.818350356816943
0.829890386037956
0.873694051813307
0.89306963273354
0.906328195564353
0.90440402897984
0.937305254835232
0.965824047885297
0.98568838778923
0.9968116800851
1.00537565474225
1.0100239678064
1.01432768901913
1.01773425246047
1.02048551865024
1.02274022134866
1.02456776601061
1.02604901381695
1.02725809476856
1.0283561361318
1.02945722477597
1.03063355493521
1.03196182672852
1.03346419872153
1.03507846196592
1.03672072166251
1.03840539397089
1.04006057115135
1.04168222979592
1.04325297479315
1.04457186361213
1.04667332719613
1.04979950167661
1.05381208525232
1.05856403322815
1.06388964961952
1.06967908957317
1.07582560899025
1.08224604184059
1.08886525628426
1.09561827756532
1.10244728285318
1.10930128243949
1.11613562033392
1.12291154576826
1.12959603131029
1.1361613627023
1.14258485769604
1.14884842850799
1.15493819719457
1.16084404054953
1.16655916616333
1.17207967836354
1.17740417271819
1.18253335772525
1.18746969463201
1.19221708182854
1.1967805800064
1.20116615848067
1.20538048837737
1.20943075124392
1.21332450138325
1.21706951557255
1.22067372538264
1.22414511398801
1.22749165720382
1.23072129253794
1.2338418656025
1.23686112721805
1.23978671496442
1.24262615883969
1.24538688971149
1.24807625508603
1.25070154894136
1.25327003543645
1.25578900455793
1.25826579499434
1.26070789561619
1.26312294128297
1.26551891732812
1.26790404919739
1.27028726732431
1.27267775827113
1.27508611751706
1.27752291870432
1.28000183457827
1.28253501135127
1.28514144405449
1.2878337374938
1.29064173216189
1.29357327902382
1.29667990892628
1.29994536399083
1.30345709657916
1.30713063661858
1.31091085428739
1.31523342956848
1.31845833083153
1.3218035652185
1.3245897655944
1.3270023612646
1.32873224026742
1.32961198701196
1.32924472427937
1.3276251775678
1.32445001529133
1.31973699984556
1.31333425644948
1.30567609552696
1.29614851614132
1.28411928850069
1.26863751357335
1.24787600346756
1.21918254598413
1.1785237214589
1.12570576413682
1.06054981195618
0.981837957065989
0.903390631017059
0.832994405718515
0.825118677281005
0.834589478148604
0.875839324424598
0.894473736789742
0.908102164937148
0.906886383315874
0.938612452690504
0.966553984271498
0.986114276690101
0.996981448191747
1.00558652357737
1.01014895171377
1.01427360620664
1.01768037891572
1.02045739382252
1.02274494428845
1.02460367957387
1.02610995138078
1.02732982616804
1.02841206154023
1.02947684278892
1.03059700795144
1.03185568382089
1.03327970521768
1.03482593720077
1.03641317833118
1.03805759569789
1.03968978199324
1.04131942727001
1.04290702184919
1.04437688866357
1.04657500752378
1.04972578898392
1.05374983316426
1.05848737593578
1.06379377281084
1.06955859809192
1.07567996018906
1.08207510505602
1.08867013526894
1.09540034305294
1.10220829930193
1.10904315031626
1.11586036784729
1.12262123912658
1.12929274537346
1.13584713713641
1.14226167137657
1.14851817435116
1.15460266544051
1.16050490536685
1.16621797748511
1.17173785729378
1.17706301308799
1.18219402511125
1.18713322654673
1.19188439913533
1.19645249156159
1.20084336882043
1.2050636058622
1.20912029666296
1.21302091626059
1.21677317188157
1.22038493223136
1.22386412579552
1.22721868150839
1.23045649575519
1.23358538023457
1.23661305749961
1.23954714248482
1.24239514758622
1.24516449075175
1.24786251084754
1.25049649719595
1.25307371284869
1.25560145009624
1.25808705265685
1.26053801735783
1.26296198842551
1.26536696310434
1.26776117738224
1.27015357473921
1.27255334672016
1.27497109941398
1.27741738428699
1.27990586268138
1.28244857996347
1.28506446156856
1.28776575774192
1.2905820578277
1.29352028047502
1.29663105691972
1.29989618827461
1.30339934707164
1.30705557766618
1.31079321886051
1.31506775601252
1.31823090188106
1.32150442957306
1.32419061111445
1.32648560077523
1.32807377401694
1.32879666364453
1.32826643345839
1.32648543977626
1.32315536952376
1.31830216392584
1.31176929721524
1.30395194934551
1.29421211743833
1.28191124971931
1.2660702265014
1.24485500086845
1.21568906608763
1.17479914127433
1.1221663581837
1.05787512898987
0.981368217014618
0.90652763395124
0.839802714958609
0.83185270658857
0.83935803459194
0.878107676466045
0.895995373456365
0.90993436444792
0.909400362305971
0.939865470373088
0.967248007767143
0.986570384685358
0.997220684076422
1.0057671137295
1.01037237047329
1.01426516759238
1.01764055404992
1.02043628245329
1.02275459080235
1.0246436743714
1.02617507805145
1.02740674973194
1.02847464122792
1.02950444868756
1.03056912904738
1.03175848126228
1.03310365960705
1.03458037110931
1.03611067799954
1.03771350347269
1.03932160586607
1.04096018982218
1.04256532638433
1.04418088012179
1.04646923670007
1.04964608362286
1.05368374731945
1.05840846935538
1.06369720999727
1.0694383982042
1.07553541204933
1.08190579942498
1.08847702644235
1.0951846436492
1.10197165245
1.10878734118494
1.11558732567024
1.12233294157582
1.12899119190425
1.13553430427193