/*--------------------------------*- C++ -*----------------------------------*\
  =========                 |
  \\      /  F ield         | OpenFOAM: The Open Source CFD Toolbox
   \\    /   O peration     | Website:  https://openfoam.org
    \\  /    A nd           | Version:  7
     \\/     M anipulation  |
\*---------------------------------------------------------------------------*/
FoamFile
{
    version     2.0;
    format      ascii;
    class       surfaceScalarField;
    location    "6000";
    object      phi;
}
// * * * * * * * * * * * * * * * * * * * * * * * * * * * * * * * * * * * * * //

dimensions      [0 3 -1 0 0 0 0];

internalField   nonuniform List<scalar> 
30950
(
8.90882391475186e-05
-1.48831647558839e-05
8.7695082199291e-05
1.39315674286078e-06
3.2897640407137e-05
5.47974421785245e-05
-1.66940026520515e-05
4.95916429244491e-05
-3.41286073643866e-05
1.74346040687176e-05
-2.78929631106715e-05
-6.23564390058146e-06
-2.16746422334384e-05
-6.21832092079243e-06
-1.78232963277583e-05
-3.85134592629948e-06
-1.64625988459527e-05
-1.3606975077422e-06
-1.58203691396463e-05
-6.42229661775842e-07
-1.58601090993839e-05
3.97399595095839e-08
-1.63748195169768e-05
5.1471041355542e-07
-1.73258392159464e-05
9.51019692237737e-07
-1.89965867089747e-05
1.67074750953987e-06
-2.16427151410442e-05
2.64612843474511e-06
-2.53447921514346e-05
3.70207701185563e-06
-2.97029188241308e-05
4.35812666049704e-06
-3.4615820485509e-05
4.91290167725401e-06
-3.99062975025795e-05
5.29047700413801e-06
-4.51363790251715e-05
5.23008153759914e-06
-4.98232442400281e-05
4.68686521366734e-06
-5.42720092873558e-05
4.44876504934229e-06
-5.85584182386323e-05
4.28640894856993e-06
-6.20897759924286e-05
3.53135775460357e-06
-6.46769939174176e-05
2.58721792597421e-06
-6.62158800557938e-05
1.53888614135302e-06
-6.66674412385055e-05
4.51561170347202e-07
-8.01554301121873e-05
1.34879888855899e-05
-9.9228550326639e-05
1.9073120206817e-05
-0.000111942890171336
1.27143398611044e-05
-0.000119865699438865
7.9228092674174e-06
-0.000124772598578137
4.90689913814861e-06
-0.000127566179771781
2.79358118873721e-06
-0.000128699190248575
1.13301046775368e-06
-0.000128479095504379
-2.20094762452459e-07
-0.00012712484066746
-1.35425482526503e-06
-0.000124811913750283
-2.31292692137092e-06
-0.000121676263125901
-3.13565060214852e-06
-0.000117837480605339
-3.83878253678726e-06
-0.000113403198504112
-4.43428209327224e-06
-0.000108471917779225
-4.93128073731129e-06
-0.000103134282656901
-5.3376351101752e-06
-9.74733296533246e-05
-5.66095303025707e-06
-9.15647687710054e-05
-5.90856087775192e-06
-8.54769534938385e-05
-6.08781528833378e-06
-7.92710760403101e-05
-6.20587743028537e-06
-7.30013204369034e-05
-6.26975561171836e-06
-6.67151922107904e-05
-6.28612820478172e-06
-6.04538770798772e-05
-6.26131514894576e-06
-5.42526872262489e-05
-6.20118984123525e-06
-4.81415405320604e-05
-6.11114669502782e-06
-4.21454629707711e-05
-5.99607753319516e-06
-3.62850951070085e-05
-5.86036786951314e-06
-3.05771960769605e-05
-5.70789901959314e-06
-2.50351241439999e-05
-5.54207192644576e-06
-1.96693009050327e-05
-5.36582323227289e-06
-1.44876083940264e-05
-5.18169248592513e-06
-9.49584647152271e-06
-4.99176192197733e-06
-4.69804795731885e-06
-4.79779849656347e-06
-9.65169600779494e-08
-4.60153101732453e-06
4.30688848953716e-06
-4.40340542619756e-06
8.51135451353492e-06
-4.2044660416999e-06
1.25173916140971e-05
-4.00603709907748e-06
1.63256282800155e-05
-3.80823669581464e-06
1.99369248367953e-05
-3.61129656692695e-06
2.33522506845922e-05
-3.41532586122247e-06
2.65725098125171e-05
-3.22025914063851e-06
2.95983986213413e-05
-3.02588881054674e-06
3.24302620309364e-05
-2.83186341759642e-06
3.5067941293293e-05
-2.63767925864192e-06
3.75106379601116e-05
-2.44269667305399e-06
3.9756726231698e-05
-2.2460882681044e-06
4.18036153282782e-05
-2.04688910509214e-06
4.36474701009873e-05
-1.84385477139088e-06
4.52830855268484e-05
-1.63561543436101e-06
4.67033906484247e-05
-1.42030511788248e-06
4.78994198227847e-05
-1.19602917612263e-06
4.88593020203286e-05
-9.59882190046948e-07
4.9568627335906e-05
-7.09325314685716e-07
5.00083371886058e-05
-4.39709848445965e-07
5.01567662930359e-05
-1.48429107544353e-07
4.99856315842044e-05
1.71134708113874e-07
4.94643245696061e-05
5.21307011910713e-07
4.85419411080476e-05
9.22383462810836e-07
4.71654902605664e-05
1.37645084700055e-06
4.52393554413849e-05
1.92613482256974e-06
4.2682851414951e-05
2.55650402591664e-06
3.93142315876897e-05
3.36861982778336e-06
3.50158880442409e-05
4.29834354409105e-06
2.94038372723334e-05
5.61205077295597e-06
2.22405389565006e-05
7.16329831585166e-06
1.24480036187745e-05
9.79253533790302e-06
5.34831583263536e-06
7.09968778675093e-06
8.03215267890365e-06
-2.68383684579552e-06
1.11413054906692e-05
-3.10915281122164e-06
1.57790450643886e-05
-4.63773957305717e-06
2.10137642464862e-05
-5.234719181672e-06
2.70057348827442e-05
-5.99197063590997e-06
3.39677229162197e-05
-6.96198803297666e-06
4.21608280821481e-05
-8.1931051654042e-06
5.04980609457429e-05
-8.33723286308785e-06
5.89417097572095e-05
-8.4436488119304e-06
6.71059338970006e-05
-8.1642241439741e-06
7.45709200556551e-05
-7.46498614627739e-06
7.97272398639173e-05
-5.15631981111173e-06
8.36582579665329e-05
-3.93101809909338e-06
8.71497238901347e-05
-3.49146592554139e-06
9.06036763419212e-05
-3.45395247815145e-06
9.49617589371598e-05
-4.35808255731526e-06
0.000102202251230215
-7.24049229704888e-06
0.000114869899250684
-1.26676480127328e-05
0.000131052547059512
-1.61826478016341e-05
0.00015225831591174
-2.12057688553828e-05
0.000182621576636079
-3.03632607048705e-05
0.000217944894517806
-3.53233178715141e-05
0.000234178880827108
-1.62339863273714e-05
0.000183744097645193
5.04347832461561e-05
0.000118752047911382
6.49920497591895e-05
7.02960505314745e-05
4.84559979257418e-05
-3.90902414030495e-06
0.000280140595502751
-2.61428950298239e-05
0.000270953191790905
1.0580560323096e-05
0.000156331604426027
0.000169419029823284
7.16915667462814e-06
0.000198754090699893
-7.15379697487049e-05
9.61417298210641e-05
-7.04140186379835e-05
-7.35959463394164e-06
-5.69559214859685e-05
-1.96764181312445e-05
-4.86141656279091e-05
-1.21931018132061e-05
-4.56019208642406e-05
-4.37294228466345e-06
-4.4827745299961e-05
-1.4164051809599e-06
-4.57323743223716e-05
9.44368979234448e-07
-4.80114371322205e-05
2.79377321390124e-06
-5.16347596681248e-05
4.57434222560942e-06
-5.72933897135103e-05
7.32937756902262e-06
-6.54738653627603e-05
1.08266040876042e-05
-7.61202502312122e-05
1.43484618814238e-05
-8.83705130196546e-05
1.66083894382542e-05
-0.00010184752710775
1.83899157793521e-05
-0.000116022072888424
1.94650227736676e-05
-0.000130028562063898
1.92365707252095e-05
-0.00014319842505259
1.78567282011876e-05
-0.000155865884153728
1.71162241518929e-05
-0.000167816834366177
1.62373591589234e-05
-0.000178029429245673
1.37439526345544e-05
-0.000186311203552248
1.08689922330842e-05
-0.000194329719710385
9.55740230138625e-06
-0.00020572410519882
1.1845946650909e-05
-0.000232790108004345
4.05539916982537e-05
-0.0002618434267351
4.81264389330035e-05
-0.000278973793476098
2.98447066117892e-05
-0.000287596786549178
1.65458023402582e-05
-0.00029109795858411
8.40807117246154e-06
-0.000290927798916275
2.62342151825923e-06
-0.000287957781974239
-1.83700647899522e-06
-0.000282752611177363
-5.42526556892387e-06
-0.000275715411468837
-8.39145452751039e-06
-0.000267147838999939
-1.08804993925888e-05
-0.000257297671893546
-1.29858176966637e-05
-0.000246376013128309
-1.47604413106382e-05
-0.000234568657712289
-1.62416375050394e-05
-0.000222040987755297
-1.74589507007058e-05
-0.000208941516620243
-1.84371062387686e-05
-0.000195403517695884
-1.91989519682634e-05
-0.000181546442741983
-1.97656358291639e-05
-0.00016747680036402
-2.01574576719854e-05
-0.000153289070486047
-2.03936072965134e-05
-0.000139066484607342
-2.04923414948765e-05
-0.00012488186604592
-2.04707467551769e-05
-0.000110798440065301
-2.03447411392903e-05
-9.68706624369365e-05
-2.01289674634753e-05
-8.31450383462821e-05
-1.98367707864832e-05
-6.96609199759203e-05
-1.94801958888952e-05
-5.64512790761693e-05
-1.90700087737713e-05
-4.35434472384017e-05
-1.86157308526426e-05
-3.09598145386387e-05
-1.8125704623606e-05
-1.87184846495658e-05
-1.76071531184624e-05
-6.83366070197443e-06
-1.70665164213456e-05
4.68336178036128e-06
-1.65087844044698e-05
1.58232827680784e-05
-1.59377194754481e-05
2.65794129247717e-05
-1.53576611842021e-05
3.69472556522501e-05
-1.47712481415983e-05
4.69233754215541e-05
-1.41805858197434e-05
5.65052639949578e-05
-1.35879256709857e-05
6.56911299760343e-05
-1.29941026912911e-05
7.4479533324471e-05
-1.23996999196781e-05
8.28691168595764e-05
-1.18049094021184e-05
9.08583244885513e-05
-1.12094667757745e-05
9.84451344032008e-05
-1.06126987253849e-05
0.00010562678358177
-1.00135125999083e-05
0.000112399476520315
-9.41037219477516e-06
0.0001187580823814
-8.80130253705884e-06
0.000124695776591848
-8.18378247611399e-06
0.000130203669589305
-7.55478210690962e-06
0.000135270305820955
-6.91049100206935e-06
0.000139881174484692
-6.24648410228916e-06
0.000144017922715117
-5.55705334614943e-06
0.000147657697640905
-4.83580410269304e-06
0.000150771783315848
-4.07396786079703e-06
0.000153324746785241
-3.26228878366982e-06
0.000155272146557382
-2.38710961769496e-06
0.000156557694440122
-1.43397699239726e-06
0.000157115994056737
-3.87164908831867e-07
0.000156872242368757
7.65058698476863e-07
0.000155715249069331
2.07937676293506e-06
0.000153502445691239
3.58925422483875e-06
0.000150030935477487
5.39764503847623e-06
0.000145057697262618
7.52974224004291e-06
0.000138208342868385
1.02179742223173e-05
0.000129033427016757
1.34732593958993e-05
0.000116755679553285
1.788979823752e-05
0.000100222624194884
2.36963536742063e-05
7.79034827480958e-05
3.21116767846634e-05
6.0717752577614e-05
2.42854179573042e-05
6.10678111749475e-05
-3.03389544268839e-06
6.66361270443582e-05
-8.67746868044803e-06
7.55215771657821e-05
-1.3523189694061e-05
8.60366494598384e-05
-1.57497914755314e-05
9.8201188278141e-05
-1.8156509454002e-05
0.000112403664231739
-2.1164463986353e-05
0.000128932277167833
-2.47217181012915e-05
0.000146397965052432
-2.58029207474675e-05
0.000164407722454535
-2.64534062143431e-05
0.000182354676315684
-2.6111178007626e-05
0.000199298524091851
-2.44088339134838e-05
0.000212779347445395
-1.86371431674241e-05
0.000223475642299441
-1.46273129507492e-05
0.000232481998425394
-1.24978220528516e-05
0.000240807168563525
-1.17791226346477e-05
0.000250184095835241
-1.37350098013475e-05
0.000264339964192646
-2.13963606597286e-05
0.000288093979718952
-3.64216635336902e-05
0.000320516059058612
-4.86047271370285e-05
0.000364138373186069
-6.48280829870915e-05
0.000424417464134684
-9.06423516385063e-05
0.000498192246056753
-0.000109098099788109
0.000552260465133461
-7.03022054221537e-05
0.000511752205726704
9.0943042702211e-05
0.000406131212573141
0.000170613042915653
0.000298285038589766
0.000156302172264277
2.54951490263037e-05
0.000442775195118516
-1.7558582334278e-05
0.000427335466492042
2.60202888678421e-05
0.000299284472663583
0.000297470023810343
7.91554061053179e-05
0.000418883157245978
-7.62983879052869e-05
0.000251595523375811
-0.000100497882885495
1.68399006362491e-05
-8.59992371592727e-05
-3.41750639094092e-05
-7.58083801007846e-05
-2.23839588983039e-05
-7.22561129448798e-05
-7.9252094543733e-06
-7.21721604913242e-05
-1.50035759624882e-06
-7.45194801379466e-05
3.29168862538757e-06
-7.90309448344276e-05
7.3052379038548e-06
-8.57152032163753e-05
1.12586006054672e-05
-9.54500860315199e-05
1.7064260395799e-05
-0.000108632132012264
2.40086500714871e-05
-0.000124777338949663
3.04936688196688e-05
-0.000142577772523784
3.44088230051178e-05
-0.000161229002626153
3.70411458908831e-05
-0.000179837403634276
3.80734237749741e-05
-0.000197411747444617
3.68109145428784e-05
-0.000213493826705139
3.39388074610307e-05
-0.000228439599968641
3.20619974163196e-05
-0.000242048352272556
2.98461114617966e-05
-0.000253712569623719
2.54081699859851e-05
-0.000263808667692539
2.09650903022824e-05
-0.000274478935658536
2.02276702684791e-05
-0.000289761530116917
2.71285411053604e-05
-0.000315113733057016
6.5906194641946e-05
-0.000338073231289313
7.10859371630532e-05
-0.000349846782765375
4.16182580925096e-05
-0.000354168423196161
2.08674427709135e-05
-0.000353816814776704
8.05646275269158e-06
-0.000349980102791324
-1.21329046839004e-06
-0.000343476325291573
-8.34078398101453e-06
-0.000334812840471419
-1.40887503936167e-05
-0.00032435772329016
-1.8846571705969e-05
-0.000312399110594176
-2.28391120896382e-05
-0.000299182232208043
-2.62026960775134e-05
-0.000284917181842753
-2.902549167982e-05
-0.000269790260453384
-3.13685588925765e-05
-0.000253967803110478
-3.32814080464884e-05
-0.000237599508784072
-3.48054005624099e-05
-0.000220819935620458
-3.59785251378555e-05
-0.000203749827271403
-3.68357441771662e-05
-0.000186496995732266
-3.74102892136496e-05
-0.000169157198181854
-3.77334048418263e-05
-0.000151814930009602
-3.78346096689048e-05
-0.000134544248141669
-3.77414286182988e-05
-0.000117409584957183
-3.74794043277259e-05
-0.000100466569487041
-3.70719829308488e-05
-8.3762845022183e-05
-3.65404952513873e-05
-6.73388636341274e-05
-3.59041772705175e-05
-5.12286588392743e-05
-3.51802135702174e-05
-3.54605848105991e-05
-3.43838048790824e-05
-2.00580162067413e-05
-3.35282732260786e-05
-5.03991460232712e-06
-3.26252547213345e-05
9.57826964696464e-06
-3.16847006654507e-05
2.37841076890257e-05
-3.07146224463861e-05
3.75680238823859e-05
-2.97216356651493e-05
5.09225447366533e-05
-2.87121820426057e-05
6.3841974396386e-05
-2.76906777966134e-05
7.63219816615345e-05
-2.66605930887474e-05
8.83591272370378e-05
-2.56250712463015e-05
9.99506399498438e-05
-2.45856154105302e-05
0.000111094060084221
-2.35431200564125e-05
0.00012178693109572
-2.24977804165424e-05
0.000132026508059989
-2.14490437431433e-05
0.000141809464964497
-2.03956556304974e-05
0.000151131594124208
-1.93356417616352e-05
0.00015998748952208
-1.82662675920011e-05
0.000168370203682919
-1.71840166994882e-05
0.000176270862481349
-1.60844412738589e-05
0.000183678227159032
-1.49621467867328e-05
0.000190578172230717
-1.38104360735559e-05
0.00019695307234393
-1.26213842175325e-05
0.000202781028314125
-1.13850093155116e-05
0.000208034948087148
-1.00897238762384e-05
0.00021268131937059
-8.72033914248118e-06
0.000216678750889398
-7.25972030233203e-06
0.000219976023838968
-5.68438256603619e-06
0.000222509670186894
-3.96762334131786e-06
0.000224201900286039
-2.07939500815584e-06
0.000224956913199988
1.00457838792495e-08
0.000224648733975327
2.38755598786463e-06
0.000223112192498095
5.12579570200057e-06
0.000220126229169674
8.38360836794285e-06
0.000215400666329246
1.22553050801451e-05
0.000208533050190614
1.70855903611726e-05
0.000198961673139341
2.30446364473456e-05
0.000185878753984437
3.09727173929791e-05
0.000167898469226001
4.16766384325822e-05
0.000143309546145217
5.67005998653774e-05
0.000122512175002345
4.50827891001876e-05
0.000118019037946849
1.45924161304962e-06
0.000121898398612521
-1.25568293460002e-05
0.000130365596149942
-2.19903872311833e-05
0.000141578215403852
-2.69624107293299e-05
0.000155158521026727
-3.17368150767578e-05
0.000171433356264882
-3.74392992242833e-05
0.000190587173204682
-4.38755350408956e-05
0.000211503886194799
-4.67196337373553e-05
0.00023352806154916
-4.84775815688227e-05
0.000256016482162141
-4.85995986217282e-05
0.0002778765358066
-4.62688875536267e-05
0.000296816078818814
-3.75766861809802e-05
0.000312806620268608
-3.06178543990257e-05
0.000326769833639625
-2.6461035424323e-05
0.000339822549477514
-2.48318384817922e-05
0.000353732219216783
-2.76446795258789e-05
0.000372414294100339
-4.00784355459278e-05
0.000401114364509927
-6.5121733939524e-05
0.000440295432713762
-8.77857953376492e-05
0.00049211449933316
-0.000116647149607947
0.000560676201201839
-0.000159204053496501
0.000644179067549374
-0.000192600966130456
0.000716121022954496
-0.000142244160835621
0.000710082922941204
9.69811427503815e-05
0.000624421394005723
0.000256274571849927
0.000509708024504544
0.000271015541967525
8.38436656087658e-05
0.00055690392533815
5.41435200820022e-06
0.000538150868509284
4.47733456612051e-05
0.000420495098700664
0.000415125793717396
0.000173734930406025
0.000665643325603815
-4.67615547737203e-05
0.000472092008230193
-0.00011235459726015
8.24329433339065e-05
-0.000104991050943882
-4.15386102671776e-05
-9.58924990638847e-05
-3.14825108006628e-05
-9.32142495388664e-05
-1.06034589789802e-05
-9.45867675549829e-05
-1.27839554779397e-07
-9.87449685950293e-05
7.44988966254091e-06
-0.000105458405230846
1.40186745310811e-05
-0.000114708631484883
2.05088268604407e-05
-0.00012725367025655
2.96092991737212e-05
-0.000143150885825676
3.99058656430997e-05
-0.000161496084790716
4.88388677851168e-05
-0.000180841789723422
5.37545279334982e-05
-0.000200337275440378
5.65366316132717e-05
-0.0002191983665766
5.6934514907084e-05
-0.000236727015900191
5.43395638705482e-05
-0.000252797914494055
5.00097060543936e-05
-0.000267773418312239
4.70375012348859e-05
-0.000281466346289661
4.3539039438522e-05
-0.000293515413478359
3.74572371748142e-05
-0.000304423219833197
3.18728966572387e-05
-0.00031594943641242
3.17538868482535e-05
-0.000331501270897977
4.26803755887591e-05
-0.000353273495364347
8.76784191102327e-05
-0.000371224444122153
8.90368859196332e-05
-0.000379655397544898
5.00492115177841e-05
-0.000381664246964837
2.28762921907067e-05
-0.000379368284519875
5.76050030757798e-06
-0.000373755168571875
-6.82640641701329e-06
-0.000365552919081398
-1.65430334725579e-05
-0.000355221155464078
-2.44205140131924e-05
-0.000343116482023336
-3.09512451452024e-05
-0.000329518050402122
-3.64375437114171e-05
-0.000314666706183668
-4.10540402932143e-05
-0.000298770704957026
-4.49214929085156e-05
-0.000282016036255639
-4.81232275929774e-05
-0.000264569530978071
-5.07279133254891e-05
-0.000246581841944642
-5.27930895943635e-05
-0.000228188753735217
-5.43716133502407e-05
-0.000209512363593847
-5.55121343179262e-05
-0.000190661900705066
-5.62607521036999e-05
-0.000171734537865801
-5.66607676786088e-05
-0.000152816157065033
-5.67529904706698e-05
-0.000133982143132631
-5.65754425483544e-05
-0.000115298184968719
-5.61633624937955e-05
-9.68210852877444e-05
-5.55490826106652e-05
-7.85995735787117e-05
-5.47620069607195e-05
-6.06750989572052e-05
-5.38286518889313e-05
-4.30826044325336e-05
-5.27727080963438e-05
-2.5851268610618e-05
-5.1615140700322e-05
-9.00518462462502e-06
-5.03743572118541e-05
7.4359078344107e-06
-4.90663471800264e-05
2.34559034620975e-05
-4.77046962911895e-05
3.90419383565998e-05
-4.6300657341128e-05
5.41839370063427e-05
-4.48636343133103e-05
6.88739482825217e-05
-4.34021933206638e-05
8.31058444921361e-05
-4.19225740039481e-05
9.68748882443972e-05
-4.04296368425674e-05
0.000110177254556596
-3.89274375579569e-05
0.000123009785447136
-3.7418146303517e-05
0.000135369637859561
-3.59029724693424e-05
0.000147253959092225
-3.43821016499403e-05
0.000158659588198918
-3.28546728509225e-05
0.000169582752332026
-3.13188197634562e-05
0.000180018756477592
-2.97716459078209e-05
0.000189961657710926
-2.82091688246709e-05
0.000199403909242087
-2.66262682311157e-05
0.0002083359683566
-2.50165003876565e-05
0.00021674583993025
-2.33720183612373e-05
0.00022461855438751
-2.16831505305219e-05
0.000231935522436171
-1.99383522669727e-05
0.000238673782976325
-1.81232698551175e-05
0.000244805015625546
-1.62209565256e-05
0.000250294397944926
-1.42097214609494e-05
0.000255098986507212
-1.20643088644838e-05
0.000259165924150369
-9.75132020840225e-06
0.000262430086429959
-7.23178562149294e-06
0.000264808995155035
-4.45830373328324e-06
0.000266201137132644
-1.38209619396209e-06
0.000266479115381118
2.10957773953616e-06
0.000265474625318985
6.13028576409429e-06
0.000262969810795974
1.08884228915511e-05
0.000258671629014299
1.65534868615201e-05
0.000252191576294661
2.3565643080844e-05
0.000242969039279404
3.22671734626086e-05
0.000230258989342863
4.36827673299709e-05
0.000212804613319428
5.9131014455939e-05
0.000188927367722659
8.05778454620743e-05
0.000167370553758908
6.66396030638144e-05
0.000159837364343649
8.9924310284565e-06
0.000161701438894655
-1.44209038970553e-05
0.00016895541656039
-2.92443648968487e-05
0.000179736273658609
-3.77432678275703e-05
0.000193379482163507
-4.53800235816705e-05
0.000210078598698575
-5.41384157593746e-05
0.0002299123971462
-6.37093334884923e-05
0.000251932489017096
-6.87397256081718e-05
0.000275380387126607
-7.19254796783635e-05
0.000299593982638001
-7.28131941336159e-05
0.000323445138964438
-7.01200438775978e-05
0.000344880772420696
-5.90123196383308e-05
0.000363560421063446
-4.92975030410908e-05
0.000380265818865683
-4.31664332268488e-05
0.00039608926902529
-4.06552886462792e-05
0.0004127125299605
-4.42679404532446e-05
0.000433837552094282
-6.12034576823613e-05
0.000464507441584731
-9.57916234286144e-05
0.000505952326506793
-0.000129230680258907
0.00056003303803318
-0.000170727861136502
0.000629794729943744
-0.000228965745401879
0.000713968042626426
-0.000276774278812083
0.000790201275781011
-0.000218477393998278
0.000804917649131959
8.22647694179578e-05
0.000746205118701725
0.000314987102270783
0.000647299790593319
0.000369920870182821
0.000151266596462913
0.000640552656019062
3.48447450621268e-05
0.000619581974557439
6.57440270901654e-05
0.000517171717164913
0.000517536051171374
0.000271086010915195
0.000911729031857159
5.59293740644152e-06
0.000737585081535556
-0.000106717404132695
0.000194743285004373
-0.000113670964418518
-3.45850500116116e-05
-0.000107585115986744
-3.7568359247686e-05
-0.000106438811318289
-1.17497636520338e-05
-0.000109512995133875
2.94634427873339e-06
-0.000115382468045462
1.33193625742465e-05
-0.000123830201912999
2.24664083950876e-05
-0.000134766213062865
3.14448380102454e-05
-0.000148764702688671
4.3607788804471e-05
-0.000165672694095105
5.6813857051219e-05
-0.000184493762004747
6.76599356951173e-05
-0.000203960287597469
7.32210535235663e-05
-0.000223374808888799
7.59511529079181e-05
-0.000242118750820414
7.56784568362477e-05
-0.000259668446434337
7.18892594870062e-05
-0.000275986922090943
6.63281817107617e-05
-0.000291331860298623
6.23824394428809e-05
-0.000305478094734681
5.76852738741829e-05
-0.000318148018768796
5.01271612090283e-05
-0.000329797091267796
4.35219691563836e-05
-0.000341763069856192
4.3719865437064e-05
-0.000356807910810257
5.77252165415427e-05
-0.000375782302691002
0.000106652810992201
-0.000390558117529431
0.000103812700757335
-0.000397039833686441
5.65309276763628e-05
-0.000397712851325804
2.35493098299804e-05
-0.000394268247326778
2.31589630843991e-06
-0.000387579771020856
-1.351488272336e-05
-0.000378320194041099
-2.58026104530569e-05
-0.000366927537452871
-3.5813170602908e-05
-0.000353750826288744
-4.41279563084317e-05
-0.000339067012128551
-5.11213578719699e-05
-0.000323116600832418
-5.70044515876819e-05
-0.00030610907154427
-6.192902219794e-05
-0.00028823233496256
-6.59999641741427e-05
-0.000269655497105238
-6.93047511837454e-05
-0.000250531604899065
-7.19169817997058e-05
-0.000230998856354079
-7.39043618971376e-05
-0.000211181695390936
-7.53292952807441e-05
-0.000191191596361312
-7.625085113411e-05
-0.000171127842540741
-7.67245214975699e-05
-0.000151078279868113
-7.68025531438182e-05
-0.000131120100154676
-7.65336222602887e-05
-0.000111320641501117
-7.59628211485218e-05
-9.17381991866915e-05
-7.51315249241825e-05
-7.24228436592582e-05
-7.40773624880647e-05
-5.34172207439145e-05
-7.28342748021708e-05
-3.47573348107739e-05
-7.1432594029987e-05
-1.64732975109097e-05
-6.98991779994687e-05
1.40996508286388e-06
-6.82576198051705e-05
1.88719229920492e-05
-6.65283050886539e-05
3.58958572962551e-05
-6.47286305938756e-05
5.24684109412626e-05
-6.28732109860529e-05
6.85790219011623e-05
-6.09742452721117e-05
8.42193385086744e-05
-5.90425099293529e-05
9.93828624454221e-05
-5.70860979393977e-05
0.000114064520902447
-5.51112953008158e-05
0.000128260196909239
-5.31231135647981e-05
0.000141966457061867
-5.11244064581584e-05
0.000155180196840638
-4.91167122489779e-05
0.000167898306554517
-4.71002113648309e-05
0.000180117364405462
-4.5073730702992e-05
0.000191833324112028
-4.30347794703469e-05
0.000203041196665412
-4.09795184619622e-05
0.000213734716896579
-3.89026890557634e-05
0.000223905978980145
-3.67975303152588e-05
0.000233545037882493
-3.46555592898867e-05
0.000242639443147441
-3.2466423626951e-05
0.000251173713534811
-3.02174209179229e-05
0.000259128678982276
-2.78933177151405e-05
0.000266480734635204
-2.5475325507876e-05
0.000273200832035563
-2.2941053926161e-05
0.000279253367652016
-2.0262257076929e-05
0.000284594523502351
-1.74054647147914e-05
0.000289170520869257
-1.43273175749527e-05
0.000292915190125203
-1.09764548777938e-05
0.000295744786786022
-7.28790039419622e-06
0.000297553789036047
-3.19109844419225e-06
0.000298213192794162
1.45017398148729e-06
0.000297555843478598
6.78763507962835e-06
0.00029536738747153
1.30768788989409e-05
0.000291358611229183
2.05622631037629e-05
0.000285154933467044
2.97693208430524e-05
0.000276216432876854
4.12056740528735e-05
0.00026385198611241
5.60472140946409e-05
0.000246960587406802
7.60224131614912e-05
0.000224014465605847
0.000103523967262982
0.000202505043896348
8.81490247733097e-05
0.000193267422227552
1.82300526973632e-05
0.000193586404157079
-1.47398858265365e-05
0.000199794070539098
-3.54520312787374e-05
0.00021006823246359
-4.80174297520155e-05
0.000223578536826445
-5.8890327944487e-05
0.000240400162052849
-7.09600409857062e-05
0.000260519084902648
-8.38282563381898e-05
0.000283057785726191
-9.12784264316032e-05
0.000307212019583856
-9.60797135360046e-05
0.000332287247273574
-9.78884218235911e-05
0.00035712587613474
-9.49586727374074e-05
0.000379830696628194
-8.17171401322985e-05
0.00039994901930614
-6.94158257184498e-05
0.000418180532664564
-6.13979465852646e-05
0.000435588475065154
-5.80632310496313e-05
0.000453820244136333
-6.24997095196666e-05
0.000476423506125034
-8.38067196720774e-05
0.000508202848347188
-0.000127570965649314
0.000550762537284985
-0.000171790369195473
0.000605863152081452
-0.000225828475933315
0.000675901638371615
-0.000299004231687527
0.0007594711121637
-0.000360343752601804
0.000835617021643756
-0.000294623303481059
0.000858953670768396
5.89281203084987e-05
0.00081722399752565
0.000356716775509517
0.000735327455632462
0.000451817412150013
0.000216611002982651
0.000706843152877014
6.59541996966694e-05
0.000684714673498378
8.78725064582694e-05
0.000596901771425576
0.000605348953293442
0.000364059155912698
0.00114457164742371
7.00976349008174e-05
0.00103154660238487
-8.84534349183879e-05
0.000353294354920213
-0.000115578248077025
-7.46023687574865e-06
-0.000113607351179375
-3.95392561573402e-05
-0.000113937299367736
-1.14198154601594e-05
-0.000118480633193763
7.48967811507446e-06
-0.000125763906718896
2.06026360973483e-05
-0.000135543686274437
3.22461879455726e-05
-0.000147662818792398
4.3563970529378e-05
-0.000162561896897793
5.85068669120992e-05
-0.000180018060111099
7.42700202658132e-05
-0.00019909311520469
8.67349907888354e-05
-0.000218717906863345
9.28458451805631e-05
-0.000238305376311039
9.55386223578148e-05
-0.000257321719254283
9.46947997778027e-05
-0.00027530589491909
8.98734351534241e-05
-0.000292207455588661
8.32297423800402e-05
-0.000308181608272233
7.83565921265998e-05
-0.000322973696455998
7.24773620576099e-05
-0.000336333267499482
6.34867322525174e-05
-0.000348631235759656
5.58199374165969e-05
-0.000360867512537138
5.59561422148199e-05
-0.000375273338647237
7.21310426507301e-05
-0.000392071634646754
0.000123451106992542
-0.000404575251834723
0.000116316317944797
-0.000409680318604406
6.16359944471663e-05
-0.000409393987548556
2.3262978774029e-05
-0.000405103282091477
-1.97480914871464e-06
-0.000397604807641224
-2.10133571738769e-05
-0.000387529855298997
-3.58775627957302e-05
-0.000375302507614264
-4.80405182886025e-05
-0.000361267685037051
-5.81627788849935e-05
-0.000345702800885237
-6.66862420240091e-05
-0.000328849907509166
-7.38573449625873e-05
-0.000310921100731195
-7.98578289767968e-05
-0.000292107236512204
-8.48138283927327e-05
-0.000272580505949368
-8.88314817471795e-05
-0.000252497000326891
-9.20004874215546e-05
-0.000231997860914376
-9.44035013108937e-05
-0.000211210315805424
-9.61168403894471e-05
-0.000190248444521966
-9.72127224180986e-05
-0.000169213938636453
-9.77590273820262e-05
-0.000148196852072255
-9.78196397084065e-05
-0.000127276383138726
-9.74540911928533e-05
-0.000106521680256071
-9.67175240321084e-05
-8.59926600606623e-05
-9.56605451191403e-05
-6.57408351550822e-05
-9.43291873937643e-05
-4.58101259535639e-05
-9.27649840023939e-05
-2.62376561606274e-05
-9.10050638237168e-05
-7.05450860918545e-06
-8.90823255507709e-05
1.17134863205575e-05
-8.7025614734948e-05
3.00450463130794e-05
-8.48598650811012e-05
4.7922858150482e-05
-8.26064424306086e-05
6.5333026222816e-05
-8.02833790585468e-05
8.22645282378813e-05
-7.79057472865724e-05
9.87086208911527e-05
-7.54866025833442e-05
0.000114658460276977
-7.30359373243201e-05
0.000130108667849721
-7.05615028741592e-05
0.000145054865562238
-6.80693112770168e-05
0.000159493381489884
-6.55629223866684e-05
0.000173420889199633
-6.3044219958824e-05
0.00018683406611298
-6.0513388278323e-05
0.000199729277718637
-5.79689423090294e-05
0.000212102257003609
-5.54077587551865e-05
0.000223947778474285
-5.28250399328365e-05
0.000235259317134294
-5.02142277154461e-05
0.000246028676376611
-4.75668895577003e-05
0.00025624558242746
-4.4872465340388e-05
0.000265897210500682
-4.21180517004717e-05
0.000274967653828535
-3.92878642456115e-05
0.000283437257924834
-3.63629218116947e-05
0.00029128187321122
-3.33199407939965e-05
0.000298471838334287
-3.01310190492626e-05
0.000304970877734199
-2.67612964764561e-05
0.000310734436512698
-2.31690234932128e-05
0.00031570794612035
-1.93008271822097e-05
0.000319824292878622
-1.50928016363186e-05
0.00032299911744976
-1.04627249653424e-05
0.000325125086392496
-5.31706738701185e-06
0.000326071707716669
5.03552657375536e-07
0.000325672424887841
7.1869179084517e-06
0.000323715888724684