/*--------------------------------*- C++ -*----------------------------------*\
  =========                 |
  \\      /  F ield         | OpenFOAM: The Open Source CFD Toolbox
   \\    /   O peration     | Website:  https://openfoam.org
    \\  /    A nd           | Version:  7
     \\/     M anipulation  |
\*---------------------------------------------------------------------------*/
FoamFile
{
    version     2.0;
    format      ascii;
    class       volSymmTensorField;
    location    "10000";
    object      bijDelta;
}
// * * * * * * * * * * * * * * * * * * * * * * * * * * * * * * * * * * * * * //

dimensions      [0 0 0 0 0 0 0];

internalField   nonuniform List<symmTensor> 
15600
(
(9.00237441956446e-05 -6.1848103663592e-07 -8.31882036092762e-25 -4.41567818015863e-05 -1.86939581548813e-23 -4.58532050568075e-05)
(0.000113419885744301 -4.35447595632626e-06 -8.64727752666184e-22 -5.56524146375813e-05 2.25027472700592e-23 -5.77501443307429e-05)
(6.87638367913982e-05 -1.13793838267336e-05 -4.62964122187531e-23 -3.31695519116478e-05 -1.21829234186255e-22 -3.55836087295165e-05)
(4.41711334057922e-06 -1.84361514266754e-06 1.16931637022324e-18 -1.91937574555292e-06 -2.75294782138584e-19 -2.49698842358208e-06)
(5.50926017569208e-06 -4.14558290640327e-06 -1.44319010423447e-18 -1.75486193597411e-06 6.71240223957068e-19 -3.75327214546491e-06)
(5.8054757079863e-06 -6.27632210937177e-06 4.83075673365143e-21 -9.55527856314621e-07 -2.77019703147379e-21 -4.84849315825486e-06)
(2.64158685123535e-06 -3.66754123676968e-06 2.29736586397863e-21 1.26310428680528e-08 -1.69010187084761e-21 -2.6534217879564e-06)
(1.61551665721171e-06 -2.64168421572118e-06 3.30792072747227e-20 2.46858988596497e-07 -3.46165946891791e-21 -1.86181704483466e-06)
(1.14297827291802e-06 -2.08939977410105e-06 -1.86440076662891e-19 3.12438059348224e-07 1.76424257366105e-19 -1.45497979467408e-06)
(1.06050003344079e-06 -1.99549024886989e-06 -2.59417839236885e-19 3.2704100663022e-07 1.95636181020344e-19 -1.38712486099481e-06)
(1.07062789040658e-06 -1.96743952071787e-06 -3.63817248844084e-20 3.01074402765789e-07 4.22554409243595e-21 -1.3712908647701e-06)
(1.19521999271769e-06 -2.11165597922973e-06 -5.53449939101823e-25 2.83147774637564e-07 4.16752729122964e-25 -1.47792434570938e-06)
(1.37324398646984e-06 -2.35247390434365e-06 2.06244131897789e-22 2.7940989089399e-07 -1.15344580471561e-23 -1.65215818034003e-06)
(1.66193447207801e-06 -2.78562422044806e-06 9.01812680351615e-21 3.00185357367398e-07 -6.90208769309886e-21 -1.96153131120022e-06)
(2.14314139033629e-06 -3.53909917090805e-06 -7.86489238441999e-21 3.54535290380055e-07 5.94761759966004e-21 -2.49692752754276e-06)
(2.91195720210008e-06 -4.7582581351249e-06 4.13441649478165e-23 4.51181259655266e-07 -8.20073701566846e-24 -3.36212972196478e-06)
(4.02555410627145e-06 -6.47350275347155e-06 -2.91029519266701e-21 5.6155359287901e-07 1.4754876007134e-21 -4.58573184201214e-06)
(5.61339134228006e-06 -8.66613709889368e-06 -6.89577054274752e-21 5.6849610818743e-07 5.18970741903015e-21 -6.18003325507142e-06)
(7.87562240903816e-06 -1.13356135934452e-05 1.35492566631457e-20 3.14450152570191e-07 -7.93175829779927e-21 -8.18761603114596e-06)
(1.09507855006399e-05 -1.42555665914944e-05 1.23097680021288e-20 -4.22866036416821e-07 -9.91039922605353e-21 -1.05247617199327e-05)
(1.48915942884282e-05 -1.69748063075639e-05 1.24289800941598e-21 -1.88980123933223e-06 -7.66757561412659e-22 -1.29978932911329e-05)
(1.98899071418316e-05 -1.91668416990551e-05 8.81457424122346e-22 -4.30878768449204e-06 7.21313566365168e-22 -1.55764460561826e-05)
(2.60268906251483e-05 -2.06013030150446e-05 -2.80260354631238e-20 -7.70669538561151e-06 1.05260765262919e-20 -1.83147002799568e-05)
(3.27920527979291e-05 -2.06833583652614e-05 -3.06529190877179e-20 -1.18379760814065e-05 1.1989954658607e-20 -2.09477917505008e-05)
(3.94833736145892e-05 -1.89325623889608e-05 -1.43334756956709e-20 -1.62586495324201e-05 6.19012010351043e-21 -2.32177580581492e-05)
(4.54371918939512e-05 -1.52716041648444e-05 8.04559221127447e-20 -2.04036249541757e-05 1.24944542143615e-19 -2.50260583714073e-05)
(4.99605752918391e-05 -9.72780568081121e-06 5.37649716601661e-19 -2.36687364457426e-05 8.0371868268208e-20 -2.62839528716376e-05)
(6.12857577415143e-05 -4.38883044701313e-06 7.69410944117171e-19 -2.97884057633064e-05 -2.01474464205202e-19 -3.14879046620777e-05)
(8.60360252748615e-05 -1.70087189376606e-06 2.42717378034046e-20 -4.21154695682202e-05 -1.9017662492668e-19 -4.39073821746357e-05)
(0.00010818566372628 -1.35557974160155e-06 -8.86178835366353e-29 -5.30317073851465e-05 6.60414744236804e-28 -5.51374134628069e-05)
(0.000120876205027265 -1.05188356690346e-06 -3.12169619877447e-20 -5.92586210049348e-05 2.34219007490738e-19 -6.1599102443439e-05)
(0.000128527557165908 -8.24218106835738e-07 1.43231959746413e-18 -6.30123800105143e-05 2.37095250764275e-19 -6.54955265323721e-05)
(0.000131990228715125 -6.54377486721089e-07 1.67972561120504e-18 -6.47112013981214e-05 -2.49737224059752e-19 -6.72588476447433e-05)
(0.000132375842604096 -5.05493058163126e-07 3.28612631251693e-20 -6.49006540984108e-05 -2.47303880046535e-19 -6.74549499968349e-05)
(0.000130228496530596 -3.7637113247357e-07 7.70914756358897e-23 -6.38479985155663e-05 -1.4497422666719e-25 -6.63605878476585e-05)
(0.000126086710643389 -2.61716237231302e-07 7.57402466273035e-23 -6.18173837933002e-05 -7.95681944146182e-26 -6.42500499074219e-05)
(0.000120361292601556 -1.61533707437093e-07 -7.35987390327266e-23 -5.90102677491824e-05 2.77305409304386e-24 -6.13326232252433e-05)
(0.000113417704616171 -7.41005396757774e-08 2.56101301167064e-20 -5.56058415966678e-05 -2.22238635862748e-19 -5.77945229286152e-05)
(0.000105574056171438 5.6387370926237e-10 -1.4979945556141e-18 -5.1760115454678e-05 -2.21350195396876e-19 -5.37977997627362e-05)
(9.71193922411235e-05 6.27280825352987e-08 -1.58128901368856e-18 -4.76148163892282e-05 2.01944017699221e-19 -4.94897274488204e-05)
(8.83100713877848e-05 1.12775870112609e-07 -2.16991822815628e-20 -4.32956430190894e-05 1.99929474397974e-19 -4.50009267405104e-05)
(7.93720423446476e-05 1.51332927624333e-07 1.74909782834368e-23 -3.89133800258426e-05 -4.55531981772747e-24 -4.04465271471436e-05)
(7.05000518014423e-05 1.79253384205216e-07 -4.5419025922497e-23 -3.45635118670961e-05 -1.16523502790006e-25 -3.59257611281271e-05)
(6.18582007020794e-05 1.97547884463774e-07 7.08066429767864e-23 -3.03264961545445e-05 2.53212028210899e-25 -3.15222469276947e-05)
(5.35809316116535e-05 2.07345951304313e-07 -1.40298229186612e-23 -2.62682481484099e-05 -2.02686506225356e-24 -2.7304491296638e-05)
(4.57746420001414e-05 2.09820455443227e-07 -1.38139959718212e-20 -2.24409322151975e-05 1.61545361636711e-19 -2.3326711071751e-05)
(3.85198986395894e-05 2.06147309695129e-07 1.04461765969777e-18 -1.88840476822278e-05 1.58439989731695e-19 -1.96299613799899e-05)
(3.18739531320996e-05 1.97456948135318e-07 1.00843457633881e-18 -1.56256624600136e-05 -1.27166461992964e-19 -1.62434171595869e-05)
(2.58735180807406e-05 1.84807908812587e-07 9.97134510899055e-21 -1.26837742812361e-05 -1.23921875157534e-19 -1.3185787667591e-05)
(2.0537574597799e-05 1.69163508876852e-07 -1.3372270276169e-23 -1.00676873409128e-05 -7.51706604904757e-25 -1.04667469187767e-05)
(1.58701404731415e-05 1.51382079496448e-07 2.00375706044273e-23 -7.77936956705722e-06 -3.93148757713207e-25 -8.08834416016164e-06)
(1.18628840632495e-05 1.32210783379926e-07 -5.94864479291589e-21 -5.81473425793416e-06 8.60988531788882e-20 -6.04633572319014e-06)
(8.49753691277743e-06 1.12287751371598e-07 4.80906953312861e-19 -4.16482298844502e-06 8.12705085924477e-20 -4.33141437006597e-06)
(5.74805889016033e-06 9.21460956139502e-08 4.09845988747801e-19 -2.8168671773198e-06 -5.2781502001342e-20 -2.93031253116302e-06)
(3.58253796676611e-06 7.22225215946934e-08 3.77642717883301e-21 -1.75521955525484e-06 -4.81147332010316e-20 -1.826770325605e-06)
(1.96483465559414e-06 5.2865291487338e-08 1.50702896826079e-26 -9.62160299371153e-07 -1.07821802699157e-25 -1.00237361406455e-06)
(8.55954568243841e-07 3.43621719341338e-08 -4.19633413939678e-28 -4.18568930942834e-07 3.73097105475296e-26 -4.37254447847707e-07)
(2.15202343346499e-07 1.69087440434449e-08 -1.49513022692111e-25 -1.04491451295845e-07 -4.10832628149976e-26 -1.10677685424364e-07)
(1.0882050877065e-09 5.92683409294918e-10 -1.44042064772027e-26 4.11399012033899e-10 -3.63992202906096e-26 -1.49915430846873e-09)
(1.72088919997753e-07 -1.45487747257583e-08 -5.84196920265738e-26 -8.35020134959588e-08 -2.04643093146118e-26 -8.85603357439953e-08)
(6.87201002826123e-07 -2.84140469439143e-08 -2.37889253889924e-25 -3.36126027106078e-07 6.1687161126925e-26 -3.50969674287616e-07)
(1.50635101784832e-06 -4.08850514766723e-08 1.4005396485097e-24 -7.37814276666964e-07 -8.97170451558518e-26 -7.68306226261988e-07)
(2.59070537580291e-06 -5.19577800422901e-08 5.13640583419627e-25 -1.26952716674498e-06 -7.72208631991204e-26 -1.32078193485005e-06)
(3.90284263075368e-06 -6.1652322058259e-08 -2.30143569870472e-24 -1.91291654943519e-06 1.18386229949966e-25 -1.98932922286578e-06)
(5.40688320690236e-06 -6.99924270395558e-08 -9.71686344518869e-27 -2.65039092979908e-06 -1.9132088245888e-25 -2.75566549477661e-06)
(7.06851043633794e-06 -7.70148691531441e-08 -4.49203260072825e-24 -3.46512541505673e-06 2.67368235299562e-25 -3.6023042219347e-06)
(8.85495496843894e-06 -8.27633724049184e-08 5.03552282313439e-24 -4.34105375001119e-06 1.9791457394166e-25 -4.51254731884215e-06)
(1.07349218960412e-05 -8.72855725941189e-08 -1.35446072309035e-26 -5.26283260792969e-06 -2.68717554232523e-25 -5.47044798958477e-06)
(1.26784874384356e-05 -9.06302616561775e-08 0 -6.21579092169109e-06 0 -6.46075809547372e-06)
(1.4656952197768e-05 -9.28444269858925e-08 0 -7.18585794552522e-06 0 -7.46885337214315e-06)
(1.66426827744262e-05 -9.39724498638144e-08 0 -8.15948557697887e-06 0 -8.48065274717818e-06)
(1.86089001890208e-05 -9.40519503858154e-08 8.16056655605526e-21 -9.12354465279467e-06 1.18294849012668e-19 -9.48251049857275e-06)
(2.05294925781642e-05 -9.31163139081184e-08 7.79515596655117e-19 -1.00652330568208e-05 2.44425402803605e-19 -1.0461120871217e-05)
(2.23787192111615e-05 -9.11857418927089e-08 1.54841778739801e-18 -1.09719306929933e-05 -7.03237429873418e-21 -1.14033671658831e-05)
(2.41310361572802e-05 -8.82784632041614e-08 7.58578050115274e-19 -1.18311138487772e-05 -2.71710489484028e-19 -1.22962330696582e-05)
(2.57606364534578e-05 -8.43867452993752e-08 -1.11811815652282e-20 -1.26301300047155e-05 -1.38518512285265e-19 -1.31265680844804e-05)
(2.7241405440864e-05 -7.95136499849528e-08 3.54906954269558e-23 -1.33561754754566e-05 1.61678189456982e-24 -1.3881065229365e-05)
(2.85460628099794e-05 -7.36043907784989e-08 -1.01085456140352e-23 -1.39958755078552e-05 3.25013856637323e-26 -1.45458231187703e-05)
(2.96466257525073e-05 -6.66593368219265e-08 1.48236293160597e-20 -1.45355101030997e-05 1.5145756184466e-19 -1.51065832211984e-05)
(3.05124306644366e-05 -5.85401239987875e-08 8.86625545381992e-19 -1.49600463033122e-05 1.5102057565571e-19 -1.55477195787725e-05)
(3.11127417857967e-05 -4.92877881746862e-08 7.95370286888665e-19 -1.52544133732558e-05 -1.56417642113838e-19 -1.58535718653266e-05)
(3.14100255495164e-05 -3.87482025307154e-08 -1.62473179485324e-20 -1.54002098301813e-05 -1.54900400686328e-19 -1.60050137350161e-05)
(3.13743584699043e-05 -2.72718050819372e-08 3.85572718153142e-23 -1.53827596278944e-05 -1.92439928249098e-24 -1.59868023216614e-05)
(3.09633993942965e-05 -1.38294953120901e-08 -1.89620057145157e-23 -1.51813079966967e-05 1.62627601531112e-26 -1.57773577169166e-05)
(3.01385965083162e-05 8.88928303005429e-10 -1.99885207811917e-23 -1.47769398417245e-05 -6.44506116137752e-26 -1.53570490911069e-05)
(2.88333806021247e-05 1.90015592692405e-08 -1.32960812523913e-22 -1.41370269657563e-05 5.38483041883193e-24 -1.46919456118824e-05)
(2.70147444082177e-05 3.7661624042117e-08 2.04423716879671e-22 -1.32453516033882e-05 4.185733383416e-25 -1.37652628129864e-05)
(2.45867697089163e-05 6.19830160704996e-08 -7.21074923584175e-23 -1.20549035727302e-05 -1.05695992158547e-23 -1.25281073281068e-05)
(2.15633790850508e-05 8.36011832894776e-08 -6.59001526563728e-23 -1.0572415808078e-05 9.4818510185438e-24 -1.09876666473156e-05)
(1.78030454484332e-05 1.15302352257308e-07 1.74190107472301e-22 -8.72848859609198e-06 4.35781702501461e-24 -9.07183502965005e-06)
(1.35247885558372e-05 1.35871435289511e-07 -7.39517091755089e-25 -6.63017997570048e-06 -5.23896583511265e-24 -6.89254061115651e-06)
(8.45358358035413e-06 1.63310728379334e-07 3.81160811068285e-23 -4.13987877107e-06 8.53177257949997e-25 -4.31241095661188e-06)
(3.72615463525544e-06 2.88291269389708e-07 5.80427814465718e-27 -1.81243723684648e-06 1.48083016707262e-24 -1.91314339798952e-06)
(2.81321186955853e-06 5.0349655994231e-07 8.9432281751602e-23 -1.34091138087702e-06 -3.19083491255853e-22 -1.47185888685527e-06)
(3.53633799943422e-06 1.18525040655369e-06 -7.42120950844167e-21 -1.59179762717134e-06 -1.58023025799214e-21 -1.9439571268003e-06)
(4.40181181576607e-06 2.10824773225299e-06 7.20667510454675e-21 -1.81643308883517e-06 1.80480990029311e-21 -2.58460326840453e-06)
(5.63706479100794e-06 3.5660135354226e-06 -3.10846279208854e-20 -2.0345891896565e-06 -1.28264702957661e-20 -3.60139507477635e-06)
(7.04632548402298e-06 5.56767728209632e-06 -1.96675923229438e-20 -2.09442813935013e-06 -7.23705500759484e-21 -4.95041207252387e-06)
(8.65648819519323e-06 8.2743676043242e-06 1.83162255934238e-20 -1.91281050102853e-06 9.95018873457806e-21 -6.7416549953962e-06)
(1.07602193688839e-05 1.20290025556049e-05 -1.88073352986922e-20 -1.49751524282977e-06 -1.14474423502042e-20 -9.25992587046746e-06)
(1.33075504618477e-05 1.68132631232179e-05 -2.22568733569948e-22 -8.08950610067617e-07 1.91352481707918e-21 -1.24948510215906e-05)
(1.62622064450743e-05 2.2464112369888e-05 2.12917184014132e-20 8.98473545543602e-08 1.36693443391146e-20 -1.63471491644158e-05)
(1.9627087625467e-05 2.88370635656497e-05 -1.64319752805777e-20 1.10401145614664e-06 -1.30471913284803e-20 -2.07248809955064e-05)
(2.35673983646188e-05 3.58542044598028e-05 1.32208678723468e-21 2.04444809748224e-06 -2.97653833547748e-23 -2.56041644445659e-05)
(2.73931013026542e-05 4.23964090756359e-05 -1.92272815063393e-20 2.8062860579973e-06 -1.533821461946e-20 -3.01903293560442e-05)
(3.0277273632966e-05 4.76206338150967e-05 -1.82819585336965e-21 3.56250257620438e-06 -1.21752241815785e-21 -3.38296263062882e-05)
(3.23805000911455e-05 5.20943570548062e-05 -1.45820109569827e-21 4.51887278611479e-06 -9.52257510304577e-22 -3.68883052789168e-05)
(3.39524926225524e-05 5.627240069401e-05 -1.07328664386972e-21 5.74660806742325e-06 -6.71549489329042e-22 -3.96871933412383e-05)
(3.53387236843556e-05 6.0692841661408e-05 -1.85821970273464e-20 7.28901582573311e-06 -1.32347318602346e-20 -4.26149537453886e-05)
(3.71953092699669e-05 6.6458964430594e-05 -1.45630632366986e-21 9.26543353126784e-06 5.05114695786002e-23 -4.64468073654815e-05)
(4.21935816850835e-05 7.70669678289955e-05 -1.2007601049806e-20 1.15280163509004e-05 -1.10408729560858e-20 -5.37054847792245e-05)
(5.34928516556638e-05 9.46857550996269e-05 -1.38507190993703e-20 1.2674024848846e-05 -1.12370736281522e-20 -6.61470304107771e-05)
(7.38986268413764e-05 0.000119372156680061 1.27523837338932e-20 1.03997692651023e-05 1.07688117755909e-20 -8.42731116445391e-05)
(0.000113929726356669 0.000156869098394796 2.57515751647569e-21 -1.61112755378894e-07 7.87453281188972e-22 -0.000113734489841962)
(0.00019121731142784 0.000207465476637388 -3.11058750570053e-20 -3.10880620487556e-05 -1.91594190173648e-20 -0.000160081220210104)
(0.000332304293014492 0.000250940206564661 1.58300925749892e-20 -0.00010593390663367 8.0625283643022e-21 -0.000226302488844415)
(0.000407888096044313 0.000179321409815915 1.52046210832777e-21 -0.00017534610585202 4.14020390612793e-22 -0.000232472241544965)
(0.000288764268199573 5.81997411073774e-05 1.01422723517384e-22 -0.000138271350023669 -2.22176074154046e-22 -0.00015044777932822)
(0.00013363601530315 6.76010833911722e-06 -8.1360940593539e-22 -6.55883249024339e-05 -3.20678239658479e-23 -6.80272801756409e-05)
(8.0652858088502e-05 -3.8638593574799e-07 -1.87067749169524e-25 -3.95607923666849e-05 1.53436220180515e-23 -4.10797405671315e-05)
(0.00175630567053738 -6.37855253633827e-06 7.48105164540881e-24 -0.000862434412607119 -1.48530563004011e-25 -0.000893603150174434)
(0.00168982860148046 -5.15734109007484e-05 2.42595521624676e-20 -0.000832647369557233 -4.3068062932368e-22 -0.00085692412897424)
(0.00127225922261128 -0.000153854926344571 6.61093351566062e-19 -0.000621883238196534 2.1688996312841e-18 -0.000650180910634173)
(0.000449662438396876 -0.000119334668169171 -2.99438554735313e-17 -0.000209601183912379 5.4573170370387e-18 -0.000239989250508947)
(1.18877893396351e-07 -2.93902047950937e-06 1.70975249876593e-18 3.67023815992821e-06 -4.85093967798905e-18 -3.78797954581007e-06)
(5.13768226457074e-05 -6.66208115383655e-05 9.21990353030793e-19 -2.78396920967183e-06 1.20063088378044e-19 -4.85782784949929e-05)
(3.25456590045636e-05 -5.02325685640932e-05 -4.23347899772127e-20 2.85782730257644e-06 3.11557225035539e-20 -3.53928673850323e-05)
(2.24024958100696e-05 -4.04956591445734e-05 -8.67539765657375e-19 5.68808761350507e-06 5.09146541298961e-20 -2.80821579336456e-05)
(1.7661337075218e-05 -3.5372748103464e-05 -1.19894142276466e-17 6.74159449650249e-06 9.47851911257927e-18 -2.43956121561321e-05)
(1.74673430636914e-05 -3.5614416538491e-05 -1.12209177339754e-17 7.1473883695759e-06 1.03235436225352e-17 -2.46073484904259e-05)
(1.91394238427424e-05 -3.73409066971395e-05 1.14412312993925e-18 6.79380567880924e-06 -1.38149953106425e-19 -2.59254511083778e-05)
(2.25458350111818e-05 -4.17958465646736e-05 6.16216122014419e-24 6.61505531327124e-06 -5.01232369572454e-24 -2.91521438066593e-05)
(2.72946096197811e-05 -4.85577909009307e-05 6.62524709835747e-21 6.71320120168946e-06 -4.21617450228968e-22 -3.39976105182848e-05)
(3.42487502775234e-05 -5.92993372294797e-05 -1.9103787995169e-19 7.39117767903498e-06 1.41586980297609e-19 -4.16274384760675e-05)
(4.44614675109483e-05 -7.58384156812547e-05 -1.19734722248963e-19 8.86835713503529e-06 8.83495383186747e-20 -5.33138288977395e-05)
(5.84260132905778e-05 -9.91283794213508e-05 1.13007369222931e-20 1.13261100617422e-05 -3.84769735006849e-22 -6.97312018996049e-05)
(7.65445794276252e-05 -0.000128315653419494 -1.41857509381203e-19 1.39636681830617e-05 1.23764439191191e-19 -9.04811005658127e-05)
(0.000100434285526659 -0.000161720138675367 3.8772455241294e-19 1.44583587389678e-05 -2.87997629699587e-19 -0.000114858183364527)
(0.000131581266019014 -0.00019709948497833 -2.39318158912961e-19 1.03655300509328e-05 1.62812912241042e-19 -0.00014190422054623)
(0.000171262932314397 -0.000230557383271354 -2.45455179263955e-19 -1.23748424246092e-06 1.89990715993911e-19 -0.000169974450637002)
(0.000221689320957399 -0.000258219002460342 3.12676740727886e-19 -2.34048320786408e-05 -2.19154722663734e-19 -0.000198225015426785)
(0.000284204710985592 -0.000276319493569156 -2.07558948927812e-19 -5.77288036614609e-05 6.80780074486813e-20 -0.000226407978137772)
(0.000355684419744877 -0.000281095994521854 2.74030397419545e-19 -0.000101983535796688 -1.05675910799404e-19 -0.000253624788902014)
(0.000432033844194217 -0.000269033940139421 5.41491180411529e-19 -0.00015280571761518 -1.97253582413599e-19 -0.000279144374891401)
(0.000508578190012142 -0.000237986418288317 2.40659003158827e-22 -0.000205818152546913 1.39785367486093e-20 -0.00030266922761596)
(0.000583184511513113 -0.000189581520064342 -1.29326506349561e-18 -0.00025705691115375 -1.90979372728589e-18 -0.000326029781642999)
(0.00067017661426784 -0.000127123696268353 -5.36400894728552e-17 -0.000311410902036579 4.97186823266282e-18 -0.00035865810403923)
(0.000723088083523 -6.15152060324779e-05 -5.26742809605845e-17 -0.000346334017457366 5.95280412956866e-18 -0.000376641062446538)
(0.000761633706892476 -2.72073246941259e-05 -1.74616091643262e-19 -0.000370615330524707 2.11108762794541e-18 -0.00039090109431127)
(0.00079096092021083 -1.42543449537147e-05 1.40878569575122e-27 -0.000387002227237401 -1.31287239309539e-26 -0.000403837529598212)
(0.000794093534888256 -5.1451249247649e-06 2.56187968002239e-19 -0.000388883654455209 -2.11447230315841e-18 -0.000405088341776648)
(0.000776240109045161 7.79142168709213e-07 -5.83646701132998e-17 -0.0003803135549926 -1.98874989935556e-18 -0.000395807799837188)
(0.000745145842535873 4.90417382590876e-06 -5.86351924184594e-17 -0.000365132720647637 1.80629854731465e-18 -0.000379899140747898)
(0.000704693254047049 7.86610400831782e-06 -2.82098075010903e-19 -0.00034531576820888 1.96394259201594e-18 -0.000359269694150755)
(0.000657670773973768 9.95781937743187e-06 1.12511194840944e-23 -0.000322257441225676 1.31194737424334e-22 -0.000335312728869044)
(0.000606429306820341 1.13880815851955e-05 4.08130095784948e-23 -0.000297121113950605 -8.14277138457021e-23 -0.000309215418966656)
(0.00055357576088256 1.23066890696422e-05 -2.14573381084075e-23 -0.000271190046785905 -4.05683904442737e-23 -0.000282301015322181)
(0.000500238774797529 1.28053174649487e-05 -2.28367078819003e-19 -0.000245020998028597 1.57286728904712e-18 -0.000255141226745906)
(0.000447359411523625 1.295404714995e-05 4.44904567460379e-17 -0.000219077528482948 2.66625745687465e-18 -0.000228213412169939)
(0.000395724634886239 1.28112483197772e-05 4.3155581128044e-17 -0.000193746560701536 -1.23999688356995e-19 -0.000201917492878708)
(0.000345983320733556 1.24280136983028e-05 2.00509210013851e-19 -0.000169346826673908 -1.3082881202441e-18 -0.000176583513707501)
(0.000298666552892431 1.18498785665756e-05 -3.24597226534984e-22 -0.000146138980752914 -1.21412583139338e-23 -0.000152481823017699)
(0.00025420118424197 1.11180517627463e-05 4.11840085141928e-22 -0.000124332338581549 4.49490979352055e-23 -0.000129829892797295)
(0.00021292231080177 1.02694427383161e-05 -3.81653553876694e-22 -0.000104091080219969 -3.72960440117813e-24 -0.000108798587741194)
(0.000175083754533078 9.33697891300362e-06 2.64179728627706e-22 -8.553942847159e-05 -2.30530025418187e-23 -8.95174681352546e-05)
(0.000140867504972652 8.34955712308853e-06 1.6032098854701e-19 -6.87663250445463e-05 -9.64974544271028e-19 -7.20795538993333e-05)
(0.000110392188685037 7.33223043981428e-06 -2.55891513317296e-17 -5.38296075543279e-05 -2.48818604620338e-18 -5.65456157494466e-05)
(8.37207420742296e-05 6.30633103184497e-06 -2.3029318234588e-17 -4.0759797479423e-05 -8.97740300416425e-19 -4.29480588885694e-05)
(6.08674240702325e-05 5.28971907582861e-06 -1.32561331339348e-19 -2.95635535347106e-05 6.42426431996221e-19 -3.12944812522179e-05)
(4.1804211596402e-05 4.29703988094192e-06 9.12336337088749e-23 -2.02268203634963e-05 1.87531415397653e-23 -2.15709193099204e-05)
(2.64666606020836e-05 3.34003649547807e-06 -7.31841692287054e-23 -1.27177094831876e-05 -1.16132328370593e-23 -1.37448272583324e-05)
(1.47592693652986e-05 2.42786104114722e-06 1.1011750971919e-19 -6.98913435011543e-06 -3.37863831381549e-19 -7.76780444079352e-06)
(6.56037559127526e-06 1.56740280810176e-06 -6.44679404190488e-18 -2.98121312928263e-06 -1.76031428735888e-18 -3.57808892796084e-06)
(1.72661385253736e-06 7.63600343077302e-07 -3.4411803043517e-18 -6.23454868592373e-07 -1.40436186175451e-18 -1.1028281024261e-06)
(9.69465487303679e-08 1.97436043608559e-08 -9.19371948364587e-20 1.63265445349634e-07 1.32195153210103e-21 -2.60133946091376e-07)
(1.49628586622381e-06 -6.62261598705879e-07 2.56842054484905e-25 -5.3506505158677e-07 3.38622740186447e-25 -9.60932506054363e-07)
(5.73872167141496e-06 -1.28161762517902e-06 2.5539880332823e-25 -2.62720170920323e-06 7.15663985366189e-25 -3.11058669287693e-06)
(1.263045601888e-05 -1.83771373583371e-06 2.34720703774162e-23 -6.01809849138964e-06 -3.62413935022295e-24 -6.61037421689424e-06)
(2.19723207764809e-05 -2.32848214344223e-06 -2.91084781935514e-23 -1.06101939437758e-05 1.96718255900294e-24 -1.13587188762466e-05)
(3.35616364199846e-05 -2.75461178203472e-06 1.22478760954808e-23 -1.6303946166956e-05 -9.8689886854269e-25 -1.7252513981207e-05)
(4.71940580055467e-05 -3.12105714164615e-06 -3.55985423148113e-25 -2.29988490604607e-05 2.278693984023e-26 -2.41879518338248e-05)
(6.26652642451551e-05 -3.43076864257585e-06 -3.21851566529384e-23 -3.0594718088694e-05 4.7071939934872e-24 -3.20609269164622e-05)
(7.97721913419196e-05 -3.68543383661668e-06 6.04921395418782e-23 -3.89920648396421e-05 -6.10417505386885e-24 -4.07678949106451e-05)
(9.83138586513164e-05 -3.8871133504942e-06 -2.26223209112699e-24 -4.80923432323778e-05 -2.86914194720259e-24 -5.02064519770013e-05)
(0.000118091879176255 -4.03803465337984e-06 -2.67829630124681e-23 -5.77982843092488e-05 4.14664097248197e-24 -6.02755104054381e-05)
(0.00013891089776447 -4.14029746045847e-06 9.71871606360204e-23 -6.80141151690328e-05 -2.89242067410788e-24 -7.08755178136145e-05)
(0.000160578724722493 -4.19580075366756e-06 -1.68217294418381e-22 -7.86456159522711e-05 4.40313365874181e-24 -8.1908533752594e-05)
(0.000182906236269874 -4.2062009794127e-06 6.88102036019012e-23 -8.96000708485535e-05 -1.59073549036871e-24 -9.32781791689443e-05)
(0.000205707056463668 -4.17286907755169e-06 -7.36919605258935e-23 -0.000100786110531699 1.50852302089442e-24 -0.000104889475942187)
(0.000228796997630521 -4.09684185625014e-06 -1.62844886856587e-25 -0.0001121134370581 2.95507255824746e-27 -0.000116648562503863)
(0.00025199329921929 -3.97879286229633e-06 -8.13803002079055e-23 -0.000123492448502503 2.04606049953033e-23 -0.000128462308170081)
(0.000275113566933643 -3.8189585157025e-06 -1.47743316455615e-19 -0.00013483371855986 -1.6628185138255e-18 -0.000140237772834379)
(0.000297974536883515 -3.61713096358393e-06 -4.8690355609247e-17 -0.000146047386541253 -2.87647276045576e-18 -0.000151881581310965)
(0.000320390372413901 -3.37251096966719e-06 -1.00039098218946e-16 -0.00015704232362337 1.07238611353457e-18 -0.000163299054174817)
(0.000342170883115749 -3.0837728974696e-06 -5.11886022562944e-17 -0.000167725250257125 4.22155127614382e-18 -0.000174393309633412)
(0.000363118834021085 -2.7487164030306e-06 1.80648744260049e-19 -0.000177999423277472 1.93668602385475e-18 -0.000185063886025333)
(0.000383027556298337 -2.36457903354064e-06 -8.49456509868978e-22 -0.000187763440823407 7.78050497045674e-23 -0.000195205547953792)
(0.000401676462112142 -1.92713161348311e-06 4.53398061334897e-22 -0.000196909065075445 2.25762113157072e-23 -0.000204705979101173)
(0.000418828174991739 -1.4317870843762e-06 -2.25261090767583e-19 -0.000205319760346027 -2.13516341227137e-18 -0.000213444374929262)
(0.000434220599484816 -8.71251133573276e-07 -5.91662934002289e-17 -0.000212866853764571 -2.05577511018614e-18 -0.000221287352875099)
(0.000447564758330175 -2.38827230522917e-07 -5.92049913675775e-17 -0.000219408460407765 2.28304051505354e-18 -0.000228087864719674)
(0.000458401708103246 4.75871486978679e-07 2.45519790083188e-19 -0.000224719371165153 2.27569479171381e-18 -0.000233612246255148)
(0.000466112528503787 1.27660547613772e-06 -1.95097552567774e-22 -0.000228495125562728 2.87419662646097e-23 -0.00023754613197437)
(0.000470358470239538 2.18838362326419e-06 1.47882477545712e-21 -0.000230568819404872 -5.22842916348007e-23 -0.000239717728323918)
(0.000470765078832366 3.22197091395136e-06 -1.31542633790388e-21 -0.000230755233591099 -1.23112193448093e-22 -0.000239937856685405)
(0.000466615170657457 4.4270638619591e-06 1.42566211409755e-21 -0.000228701628245396 1.28803684981492e-22 -0.000237842182621296)
(0.000457206081253422 5.79404185966326e-06 -3.39369222863206e-21 -0.000224059255548795 1.82022272016118e-23 -0.000233076895642928)
(0.000441346445303178 7.42328065729627e-06 1.97425464446976e-21 -0.000216240721161572 -2.67625137613459e-23 -0.000225038205928006)
(0.000418095954642538 9.24671505505721e-06 1.96490367981685e-21 -0.000204773413818764 1.01388011241811e-22 -0.000213258556858321)
(0.000385368171656024 1.14811067330172e-05 -3.22440833802465e-21 -0.000188619817169685 -9.10069354983522e-23 -0.000196689341782534)
(0.000341691679140083 1.39195254357848e-05 6.61012310119914e-25 -0.00016702193154356 5.34888467774581e-24 -0.000174617357150333)
(0.000283265200069343 1.66927443871284e-05 3.7908645035168e-23 -0.000137885659781293 2.21798706004323e-24 -0.000145335935146992)
(0.00022393034689987 2.38411458132397e-05 1.58984313379217e-20 -0.000107855108122865 1.31474781189682e-21 -0.000116040423168494)
(0.000195073437252979 3.57453733442993e-05 1.23132700129427e-19 -9.20539637909882e-05 1.52092420011126e-20 -0.000102988573799885)
(0.000181794014471502 5.38922640105232e-05 2.55260407041318e-19 -8.22482659932657e-05 6.01751724890298e-20 -9.95158907252436e-05)
(0.000180939873930358 7.49472362904571e-05 -8.55989748699129e-20 -7.68009354066739e-05 -4.5439686734457e-20 -0.000104107703089214)
(0.000182348321269025 9.96952133284861e-05 4.62206825808603e-19 -7.00127344804472e-05 1.43263020850642e-19 -0.000112301892851329)
(0.000185767131223775 0.000127982213215195 4.24852586002269e-19 -6.15579638193328e-05 1.9644913576311e-19 -0.00012417191210528)
(0.000189907299831882 0.000160401339583853 -4.18805650176757e-19 -5.03017980270887e-05 -2.02272693316766e-19 -0.000139563628528907)
(0.000196553963185924 0.000198551793619758 4.16401292534834e-19 -3.66398575666764e-05 2.1170008381446e-19 -0.00015986614098049)
(0.000207044246995649 0.000243404452224197 -3.8797694993331e-19 -2.10557871790545e-05 -2.38646540556276e-19 -0.000185932674435726)
(0.000222427235028529 0.000294790162824472 -3.62004981139136e-19 -4.60951938239377e-06 -2.40040986597255e-19 -0.000217752383397891)
(0.00024247140799775 0.000352036916768731 1.49720354610199e-19 1.21671843181527e-05 1.06791880980037e-19 -0.000254562216013468)
(0.000268520365988882 0.0004149331601661 -1.83515827130585e-19 2.77970542545904e-05 -1.17598233607812e-19 -0.00029622854279289)
(0.000299346492932806 0.00047999424200933 3.12016967196316e-19 4.1175796855351e-05 2.50987564437203e-19 -0.000340420153528473)