/*--------------------------------*- C++ -*----------------------------------*\
  =========                 |
  \\      /  F ield         | OpenFOAM: The Open Source CFD Toolbox
   \\    /   O peration     | Website:  https://openfoam.org
    \\  /    A nd           | Version:  7
     \\/     M anipulation  |
\*---------------------------------------------------------------------------*/
FoamFile
{
    version     2.0;
    format      ascii;
    class       volScalarField;
    location    "10000";
    object      k;
}
// * * * * * * * * * * * * * * * * * * * * * * * * * * * * * * * * * * * * * //

dimensions      [0 2 -2 0 0 0 0];

internalField   nonuniform List<scalar> 
15600
(
0.000321065046393222
0.000292902132294085
0.000171315326562575
6.92752146186691e-05
1.81268231995564e-05
1.25299253893948e-05
1.31126134148256e-05
1.00634522113605e-05
8.01175698895625e-06
7.08374903477504e-06
6.63173376378611e-06
6.57328536709949e-06
6.93864052568985e-06
7.79037954191063e-06
9.28572383754327e-06
1.15679766311815e-05
1.48041004313721e-05
1.91031628517916e-05
2.4701143414607e-05
3.18129119554516e-05
4.052058678014e-05
5.07477172379386e-05
6.27138811028876e-05
7.64402589518077e-05
9.12347331944038e-05
0.000106382003144629
0.000120913068755671
0.000133996260294425
0.000167343785686607
0.000213375137036265
0.000252696785168239
0.000287076946463915
0.000318487363970518
0.00034732250828965
0.000373415585047507
0.000396509926187382
0.000417029536507288
0.00043499048703251
0.000450455355974162
0.000463499062228254
0.000474218852759376
0.000482732156039981
0.000489174978589064
0.000493696361974186
0.000496454347731603
0.000497610768388144
0.000497327456898742
0.000495762527297362
0.000493067758108058
0.000489386449097984
0.0004848520941001
0.000479587438439213
0.000473704139910363
0.000467302686187226
0.000460472706228474
0.000453293366223159
0.000445834156434709
0.000438155183420342
0.000430307072156111
0.000422334615427798
0.000414274332262994
0.000406156388506364
0.000398006714167693
0.000389844912451861
0.000381685905251307
0.000373540731942334
0.000365416732454772
0.000357317881793968
0.000349245061173464
0.000341196240073979
0.000333166672872764
0.000325148890951026
0.000317132854952848
0.000309105658804834
0.000301051752949842
0.000292952094122819
0.000284784765755997
0.000276522906394492
0.000268136586726341
0.000259588015001746
0.000250840450297599
0.000241794070154169
0.000232497901131782
0.00022297474598769
0.000213113189146442
0.000202722262643435
0.00019168446856037
0.000179731385340878
0.000166731898649944
0.000152288831338075
0.000135883165292379
0.000115185476028871
0.000103143141862382
0.000112605545634111
0.000123005272080601
0.000135018138468407
0.000145613678310809
0.000155312891729107
0.000164937481004349
0.000175540819275368
0.000185092231483889
0.000194069503979437
0.000202224367793065
0.000209329194249344
0.000211924766391894
0.000211815889823723
0.00021036536336127
0.000208270199008197
0.000206819950102775
0.000208918878976879
0.000219888084280036
0.000237854919462391
0.000266472003622467
0.000316164354293167
0.000391279544329172
0.000467445150866221
0.000420692625365196
0.000338041222562882
0.000276807997884688
0.000301764571603802
0.00547659637369169
0.00501611192203931
0.00311730799586071
0.00131164928234736
0.000346703648363584
0.000231602267881914
0.000242460439052285
0.000187374598435047
0.000148779773137551
0.000131100237288634
0.000122369196082537
0.000120946458795345
0.000127255307030018
0.000142415853330277
0.000169255311407785
0.000210333259894957
0.000268570126186654
0.000345774901401726
0.000445785687934481
0.000571793955005446
0.00072431121470368
0.000900972307981217
0.00110376383236404
0.00133078031401252
0.00156957380196286
0.00180863725245032
0.00203687541512348
0.00227106578837755
0.00278330855322443
0.00342106703967671
0.00394246240398251
0.00438570288972555
0.00478197619286454
0.00513917602482566
0.0054578664073457
0.00573519271301238
0.00597906744968613
0.00619093436582666
0.00637255848545798
0.00652557139891235
0.00665164066347634
0.00675247617493066
0.0068298450070918
0.00688554254882024
0.0069213751634021
0.00693912894148585
0.00694054839005144
0.00692731317514521
0.00690102228805725
0.00686318048003653
0.00681519023811823
0.00675834585005936
0.00669383184362124
0.0066227230222814
0.00654598749202434
0.00646449027537157
0.00637900009585577
0.0062901917393702
0.00619864117290225
0.00610486555748748
0.00600929920189363
0.00591230423953836
0.00581419486069047
0.00571521890524815
0.00561557069502407
0.00551539875620774
0.00541480759997683
0.00531386055453298
0.00521258199445808
0.00511095862269579
0.00500894077163297
0.00490644154836456
0.00480333731558864
0.00469946347454388
0.00459461500416624
0.00448853579416141
0.004380922120791
0.0042713979958835
0.00415952964996519
0.00404476983503919
0.00392655161457031
0.00380346704961464
0.00367622923495093
0.00354506381424459
0.00340816962364743
0.00326279533425497
0.00310685637662603
0.00293637184513145
0.00274845229644504
0.0025370951164095
0.00229235995516075
0.00197801542886706
0.00178213510667109
0.0019151345302759
0.00208221905536172
0.00227517426479666
0.00245009409964832
0.00261444316745893
0.00278071706887392
0.00296278328862609
0.00312993167450375
0.00328772073397118
0.00343202351846527
0.00355763520204361
0.00361305089420196
0.00362593576101305
0.00361730131271904
0.00359828268937385
0.00359018684941199
0.00364159746700105
0.00383500253008658
0.00413488382945454
0.00459658590827876
0.00535678281511873
0.00643083998758109
0.0074465460399411
0.00691333628102513
0.00582794372976832
0.00490740518197857
0.00520867296499387
0.0176372282683774
0.0164015159650886
0.0124968427253202
0.00676889504197121
0.00197693828033047
0.00117115289019705
0.00122023888547417
0.000963665652468607
0.000771125124834452
0.000678841877805082
0.000632445819406836
0.000622414367449558
0.000650614457964308
0.000722291653064455
0.000849674556476779
0.0010413543322419
0.00130381031804526
0.00163586965858002
0.00203938295513157
0.00250782555300491
0.0030241519779137
0.00356914710409441
0.00413949566559629
0.00472547283028339
0.00530686513131966
0.00588264716795798
0.00648016782862931
0.0071852052758215
0.0083248488682904
0.0095542164742223
0.0105428097623897
0.011384340051948
0.0121337534938802
0.0128060438601873
0.013405141728398
0.013933820818288
0.0144008605977885
0.0148097668341534
0.0151639619643228
0.0154664834615407
0.0157203066334922
0.0159283898192558
0.0160937265202777
0.0162193241661475
0.0163081903289989
0.0163632967768959
0.0163875521961992
0.0163837713395396
0.0163546520174887
0.0163027550060161
0.0162304906600332
0.0161401085796672
0.0160336929534415
0.0159131606674578
0.015780263377131
0.0156365913599583
0.015483580012234
0.0153225144649685
0.0151545228537978
0.014980621121835
0.0148016972262971
0.014618514064339
0.0144317393967199
0.0142419322750956
0.0140495552178228
0.0138549843056001
0.0136585129528738
0.0134603559378149
0.0132606524372331
0.0130594676936841
0.0128567940989345
0.0126525495303112
0.012446576091336
0.0122386333311877
0.0120283946968735
0.0118154315777261
0.0115992088126596
0.0113790503115047
0.0111541384026698
0.0109234413498677
0.010685781765062
0.0104391002912974
0.0101833047131687
0.00991863454314854
0.00964171007735112
0.00934735929940821
0.00903036382680674
0.00868275379410201
0.00829555884435657
0.00785566553027829
0.00733621537836034
0.00665238785676621
0.0061562256656446
0.00633606803490521
0.00672252498032298
0.00720834122613225
0.00769818544055609
0.00819353225293103
0.00871762522062499
0.00929077866449082
0.00985325179625492
0.0103982765703856
0.0109133413965995
0.0113798203122195
0.0116993344118656
0.011913101978377
0.0120708432711709
0.0122047535649103
0.0123621806438723
0.0126542594179627
0.0132594257632068
0.0140960844721978
0.0152297371421344
0.0168287188351984
0.0188161962332773
0.0204312633031323
0.0197889902424783
0.018324816308092
0.0172178957422621
0.017586056580458
0.0261195851068023
0.0248913036326707
0.0209411070757324
0.0142822498415354
0.00596852599329546
0.00325151297496575
0.0032111617809705
0.00263993880250766
0.00216395484325288
0.00191127343699319
0.0017738364928556
0.00172592468641101
0.00177162916185608
0.00191828970891535
0.00218335454774012
0.00256738458709847
0.00306002625446834
0.00363689924850343
0.00428446831846699
0.00498231620989367
0.00570530493169021
0.00643804745060444
0.00718849261814375
0.00795342080016814
0.00872183196656415
0.00951217842904405
0.0103859713208252
0.0114697281487567
0.0130120643272236
0.0145715160421605
0.0158338120795009
0.0169199505698203
0.01788400005852
0.0187443261151404
0.0195092448023724
0.0201872469690897
0.0207866436341968
0.0213121785716752
0.021768200631029
0.0221586028401499
0.022487174202416
0.0227576613391519
0.0229738290067834
0.0231394425926631
0.0232582524956518
0.0233339563867339
0.0233701678855525
0.0233703825887505
0.0233379514918522
0.0232760583280722
0.0231877039210207
0.0230756944965306
0.0229426359765105
0.0227909319568079
0.0226227858077998
0.0224402053384407
0.0222450106855919
0.0220388373589865
0.0218231354069208
0.0215992102955291
0.0213682134745095
0.0211311463448908
0.0208888863769562
0.0206421820952455
0.0203916637354503
0.0201378537285008
0.0198811723050973
0.019621942539569
0.0193603941829527
0.0190966660338309
0.0188308072554504
0.0185627761479287
0.0182924382944829
0.0180195600633716
0.0177438029599298
0.0174647082938868
0.0171816874026971
0.0168939897865154
0.0166006898232776
0.016300622740894
0.0159924080786571
0.0156739906766398
0.0153439364132649
0.0150019581498793
0.0146448280646963
0.0142670969305101
0.0138624595266487
0.013421887239275
0.012934105231361
0.0123829530178161
0.0117404072595081
0.0109023567403878
0.0102479494894023
0.0103637965467205
0.0108276014825971
0.0114685218457227
0.0121685719526626
0.0129103095138276
0.0137136302549308
0.0145937906768205
0.0154851535596431
0.0163640061561853
0.0172092584869151
0.0179906217661752
0.0186018012594525
0.0190739330693757
0.0194691765500058
0.0198372098844297
0.020239298198544
0.0208084338553784
0.021744583457709
0.0229573447028208
0.0244751152030014
0.0264343487956761
0.028773641413733
0.0307850900874816
0.0302076237131995
0.027964430940278
0.0260551915031303
0.0260366120563991
0.0317403984426259
0.0306957786861077
0.0269389344013381
0.0205029284755686
0.0113739975197367
0.00637806598814188
0.00567859510869285
0.00482468774850801
0.00407155589736271
0.00361707480697362
0.0033410243074723
0.0032077597884164
0.00322333494962415
0.00339425837607365
0.00373531810562181
0.00423096191669914
0.00484997101673123
0.00555184068809549
0.00631673462374556
0.00712133648079309
0.00794360809979628
0.00877755254775417
0.00963850287705989
0.0105273455811971
0.0114415937209622
0.0124133579818651
0.0135217154049755
0.0149016794843532
0.0167188811084873
0.0184934205135959
0.0199439440536444
0.0211997878717244
0.0223130674704509
0.0233037875083298
0.0241851987021152
0.0249679699073456
0.0256602875327783
0.0262676607977521
0.0267950239530632
0.0272468436582326
0.0276274663163279
0.0279411900247607
0.0281923248825411
0.028385176942791
0.0285240290892064
0.0286131012596713
0.0286565152703929
0.0286582581685441
0.0286221526517822
0.0285518323123798
0.0284507241783643
0.0283220359979711
0.0281687497010571
0.0279936193014605
0.0277991730143409
0.02758771911835
0.0273613542506853
0.0271219625065785
0.0268712270418432
0.0266106602596565
0.0263416020837733
0.0260652251509421
0.0257825575353704
0.0254944838565905
0.0252017554628919
0.0249050011022365
0.0246047338882075
0.0243013572404556
0.0239951694673756
0.0236863668427926
0.0233750453302783
0.0230611999701004
0.0227447229696586
0.0224253978968699
0.0221028931260041
0.0217767477852207
0.0214463591994754
0.02111095429214
0.0207695690818676
0.0204209932723095
0.02006376361925
0.0196958741917176
0.0193152931530741
0.0189206308391879
0.0185090626931169
0.0180753400326819
0.0176128453592318
0.01711231074074
0.0165616352798977
0.0159436956075723
0.015230707170964
0.0143149980648885
0.0135629689745294
0.0135929244845721
0.0140644656362367
0.0147785828727403
0.0156036988302635
0.0165046589368427
0.0174934516019888
0.0185788228946863
0.0196956655054522
0.020809128552084
0.0218914104649764
0.0229041463738192
0.0237431766224415
0.0244276972317717
0.0250216610447627
0.0255846279875264
0.0261863657502073
0.0269677406575399
0.028132958193582
0.0296104715456305
0.0314105217733977
0.0336450471627668
0.0362799161608831
0.0386940042702446
0.0385490844306604
0.035959385376705
0.0328620797430334
0.0318685727622532
0.0363260729374279
0.0352818732497154
0.0316649788138527
0.0253473032915624
0.0166897642667112
0.0101084704606365
0.0081217106542834
0.00696534406024711
0.00600558501537408
0.00536661685689045
0.00494617203650001
0.00470973123134373
0.00466615545883322
0.00482354366675818
0.00519309635397887
0.00574476717609986
0.00643026863823288
0.00720003418325841
0.00803163218047358
0.00890197120900806
0.00979349267501329
0.0107072534864643
0.0116620896890755
0.0126615795050327
0.0137100396745199
0.0148482253010786
0.0161622957300997
0.0177807044641982
0.0197993727090587
0.0217302708707835
0.0233250322696126
0.0247123062453356
0.0259421244276731
0.0270362893551453
0.0280108589775498
0.0288773254655242
0.0296439676802026
0.030316832394622
0.0309012869503361
0.0314022374074787
0.0318244632189121
0.032172697342882
0.0324516836440582
0.0326661613068749
0.0328208418728951
0.0329203672328404
0.0329692708207446
0.0329719384195927
0.0329325758638927
0.032855182349904
0.0327435313686003
0.0326011570612491
0.0324313469373707
0.0322371396826458
0.0320213272443739
0.0317864637405172
0.0315348661048711
0.0312686223862854
0.0309896046464863
0.0306994932949537
0.0303997809281938
0.0300917791245125
0.0297766387314037
0.0294553551634674
0.0291287787300275
0.028797625552668
0.028462485591719
0.0281238293987527
0.0277820134070734
0.0274372836832389
0.0270897781348258
0.026739526530788
0.0263864488068999
0.0260303500014234
0.0256709134424578
0.0253076879524697
0.0249400739788876
0.0245672978014216
0.0241883871993482
0.0238021227646441
0.0234070130448918
0.0230011009616767
0.0225821321779332
0.0221479924395105
0.0216958934994522
0.0212208908845735
0.0207164062541882
0.0201732906254215
0.0195792686092123
0.0189171928463893
0.0181596443783732
0.0172016354249596
0.0163856644092918
0.0163327324798906
0.0167820536575273
0.0175272381098534
0.0184284266473833
0.0194362060257041
0.020553621273232
0.0217826629537534
0.0230595138582338
0.0243421668144059
0.0255974195109573
0.0267808434180279
0.0277924316629115
0.0286427889146025
0.0293942370444532
0.0301115551469723
0.0308702731338178
0.0318146081602724
0.0331468557632837
0.0348175373759661
0.0368321204683616
0.0392834831104019
0.0421499268810909
0.0448617566334021
0.0451660178133189
0.0426928955529425
0.0389311807233756
0.0369526028068092
0.0404740340653059
0.0392698306829009
0.0357531826703264
0.0293821333750183
0.0212788226102536
0.0140514260531213
0.0104964639133702
0.0089088729258363
0.0077781479097141
0.00698620170371063
0.00643883570289247
0.00610689149218553
0.00600139732927528
0.00613326948448405
0.00651089148193247
0.00709306803654412
0.007818614151788
0.00863263659823862
0.00951144986972716
0.0104330686980182
0.0113839703038541
0.0123702009714047
0.0134124209053479
0.014516332885769
0.0156914055556977
0.0169832291975531
0.0184785602838626
0.0202929662955822
0.0224677135772978
0.0245219650610687
0.0262356891820047
0.0277325152876341
0.0290605105258453
0.0302430173273623
0.0312974392828191
0.0322356270670333
0.0330660365114183
0.0337951267433259
0.0344286162852489
0.0349717753537907
0.035429746231844
0.0358076302552766
0.0361105412810531
0.0363435899714128
0.0365118569550462
0.0366203484475991
0.036673953990229
0.0366774047642564
0.0366352387556285
0.036551772214769
0.0364310791087111
0.0362769766017739
0.0360930170888815
0.0358824858967627
0.0356484042819749
0.035393538101637
0.0351203940886583
0.03483123801469
0.0345281048759688
0.0342128205451736
0.0338870096104333
0.0335521037795553
0.0332093605861593
0.0328598716452791
0.0325045734442418
0.0321442585998895
0.0317795847733804
0.0314110821806254
0.0310391595675053
0.0306641086179925
0.0302861066945517
0.0299052174969423
0.0295213897486631
0.0291344528857794
0.0287441103820005
0.0283499281457298
0.0279513202425432
0.0275475255114269
0.027137581494534
0.0267202810543432
0.0262941371001064
0.025857245175934
0.0254072944626941
0.0249417989498819
0.0244578701410662
0.0239508399325355
0.0234143358391109
0.0228395236170104
0.0222143271066163
0.0215220452203422
0.0207358343034854
0.0197561470818251
0.0188992942038201
0.018773270193129
0.0191875224014649
0.0199404659424538
0.0208882405557518
0.021970470331504
0.0231814681365508
0.0245165424635553
0.0259127359545313
0.0273230923984585
0.0287098524203375
0.030023744950657
0.0311691236014516
0.0321509845508796
0.0330292431499255
0.0338714245374831
0.0347571817111894
0.0358321475117899
0.0372939554179008
0.0391119675969845
0.0412925644136861
0.043913382756125
0.0469536885482719
0.049868436293169
0.0505232665401448
0.0483122080588315
0.0443451350004588
0.0416640501141043
0.0443249323920417
0.0428928079217649
0.0394465714639995
0.0330100726180754
0.0251376079652229
0.0179218778180369
0.0129138872909226
0.0107076427735546
0.00939624776687379
0.00847384639105989
0.00781788267350151
0.00740250146489208
0.00723939606580221
0.0073420438807963
0.00771705787536596
0.00831550684645015
0.00906679398099492
0.00991267747956553
0.0108288065419951
0.011794551007025
0.0127997669468182
0.0138541094610485
0.0149793025069626
0.0161827224620287
0.0174774096135758
0.0189108844853035
0.0205665091587759
0.0225450546888145
0.024846346467524
0.0270040277263466
0.0288209669548169
0.0304137686093648
0.0318286354836846
0.0330900219724026
0.0342158752201227
0.035218235760158
0.0361057579616937
0.0368852365426818
0.0375626909353934
0.0381437085794835
0.0386337510246469
0.0390382466643275
0.0393626397717813
0.0396123741840368
0.0397928625910332
0.03990943965344
0.039967316400111
0.0399715360716202
0.0399269368638637
0.0398381215865848
0.0397094357247545
0.0395449520840438
0.0393484621848653
0.0391234738423625
0.0388732168632949
0.0386006439644399
0.0383084351812506
0.0379990161602227
0.0376745681445773
0.0373370480354724
0.0369881991646075
0.0366295612329589
0.0362624880885346
0.0358881581662641
0.0355075859089137
0.0351216334497769
0.0347310203178532
0.0343363316726446
0.0339380249532385
0.0335364349362688
0.0331317770464378
0.0327241486621686
0.0323135282963615
0.0318997720504104
0.0314826073397269
0.0310616224458142
0.0306362524213819
0.0302057578632513
0.0297691984517447
0.0293253939672663
0.0288728836578064
0.0284098230964436
0.0279339247327793
0.0274425559759755
0.026932721751644
0.0264000042958103
0.0258383122262206
0.0252392350646057
0.0245911230250813
0.0238779657998626
0.0230736904281061
0.0220853286374771
0.0212041654876654
0.0210167881719148
0.0213916010117615
0.0221388743307613
0.0231143643328298
0.0242496164355796
0.0255309228776529
0.0269471803047976
0.0284357175437065
0.029945862236361
0.0314358676550642
0.0328524821270839
0.0341042413338261
0.0351926608688394
0.0361753473380836
0.03712128884451
0.0381131892633869
0.0392969778045239
0.0408642651731778
0.0427993969367329
0.0451114862388679
0.0478649946731285
0.051032664714588
0.0540792069030984
0.05498509117774
0.053042461276345
0.0491080958237782
0.0460025280354019
0.0479032842316262
0.0462399695830657
0.0428435119374645
0.0364263159745491
0.0284965164296008
0.0215687635096491
0.0154758644600608
0.0124494980226774
0.0109093216883495
0.00986619046422001
0.00911479878450536
0.00862541978172487
0.00840862261299529
0.00847959155781635
0.0088441185701856
0.00944857735541652
0.0102157420159076
0.0110851385376449
0.0120320074183077
0.013037052473192
0.0140928678535122
0.0152117523772433
0.0164160649043019
0.0177143823060687
0.0191219017268967
0.0206859219271517
0.0224840957706575
0.0246026504234287
0.027010456401385
0.0292587325706209
0.0311684319508485
0.0328482496705943
0.0343425875674609
0.0356765387254796
0.0368681804475601
0.0379296729382608
0.0388698631167882
0.0396958303591766
0.0404138616173799
0.0410298305924905
0.0415494898546897
0.0419785681973123
0.0423228149059531
0.0425879824026882
0.042779791647281
0.0429038826186632
0.0429657654396615
0.0429707737507112
0.042924025114369
0.0428303889049908
0.0426944630514857
0.0425205578845506
0.0423126869279623
0.0420745652265777
0.041809614906844
0.0415209608292374
0.0412114446730095
0.0408836397792013
0.0405398623184885
0.0401821904059543
0.0398124770995931
0.0394323617892203
0.0390432875232624
0.038646513140312
0.0382431254096043
0.0378340512115559
0.0374200679789916
0.0370018126367769
0.0365797889216632
0.0361543730911406
0.0357258178352693
0.035294254242029
0.0348596915556042
0.0344220144133824
0.0339809771568278
0.0335361945276742
0.0330871281610028
0.0326330673702183
0.0321731031994373
0.0317060932927931
0.0312306192064183
0.0307449052952253
0.030246730014265
0.0297334436117937
0.0292020047960783
0.0286482208148623
0.028066321115866
0.0274483800814113
0.0267833140886068
0.0260559306646056
0.0252410845083915
0.0242526973920047
0.0233593384973348
0.023122099257636
0.0234575585540166
0.024191456697319
0.0251820745517321
0.0263553567770568
0.027690491699078
0.0291703666296739
0.0307321171575102
0.0323220677072232
0.0338948898083208
0.0353940241535454
0.0367319636899808
0.0379082157956709
0.0389784381231232
0.0400124221833814
0.041095161013692
0.0423720649671548
0.0440279926199971
0.0460589773041827
0.0484768811614241
0.0513338439378686
0.0545913333759134
0.0577167340812588
0.0587942445527096
0.0570849057039891
0.0532875969720316
0.0499554286277376
0.0512171896671034
0.049350009009496
0.0459927267239076
0.0396979680973943
0.0315337829670389
0.0249361227961027
0.0182340390690576
0.0142175835656024
0.0123660926372707
0.0111985962499233
0.0103594644420783
0.00980214708401069
0.009533848074139
0.00957038622485205
0.0099174429050858
0.0105192836911772
0.011294332621689
0.012180588953514
0.0131529667726423
0.0141933446734814
0.0152964701003118
0.0164765640455847
0.0177563113137265
0.0191450059452158
0.0206588027468455
0.0223432453480819
0.0242690807001884
0.0265091814561892
0.0290094430583218
0.0313396009468569
0.0333347891936138
0.0350954713602478
0.0366642218229225
0.0380663725406909
0.0393199032126632
0.040437054836675
0.0414268490263293
0.0422966137660956
0.0430528802377456
0.0437017874697238
0.0442493605741992
0.0447016115431857
0.0450645784393467
0.0453443065583846
0.0455468098908872
0.0456780188282789
0.0457437280500272
0.0457495474200849
0.0457008601143248
0.0456027887663252
0.0454601709569401
0.0452775423037248
0.0450591266696807
0.0448088369552056
0.0445302734691661
0.0442267257560477
0.0439011881194342
0.0435563730855075
0.0431947238039556
0.0428184326808634
0.0424294561323662
0.0420295273445773
0.0416201734995187
0.0412027292802424
0.0407783497803526
0.0403480232424048
0.0399125822075188
0.0394727131503132
0.0390289644716177
0.038581752864497
0.0381313678548229
0.037677974442613
0.0372216135025009
0.0367621998263563
0.0362995171559727
0.0358332100314755
0.0353627711617268
0.034887524148289
0.0344065986769561
0.0339188989255278
0.0334230610014333
0.0329173869073045
0.0323997466739425
0.0318675502103696
0.0313177786316661
0.0307464557123188
0.0301481535277116
0.0295154644298306
0.0288379555646051
0.0281013140829589
0.0272814415916398
0.0262990310031869
0.0254024494988984
0.0251257567031501
0.0254242968815617
0.0261406566030629
0.0271378214366812
0.0283382290218764
0.0297149473167328
0.0312453415091962
0.0328660085668975
0.0345206993024352
0.0361608089722946
0.0377270296363063
0.0391356213022044
0.0403851090295265
0.0415296076156035
0.0426393764443365
0.0438011053180209
0.045159007098642
0.0468907714467973
0.0490014807980436
0.0515049284386546
0.0544411373658277
0.0577575069117496
0.0609216979498199
0.0621106149593787
0.0605920911278138
0.0569700853118452
0.0535390791138476
0.054278419337884
0.0522446661119595
0.0489245506394805
0.0428336549572371
0.0343851247964182
0.0280027131852486
0.021168566154529
0.016086114467383
0.0138102351550449
0.0124999232391267
0.0115754814061436
0.0109533426659644
0.010634093127425
0.0106329755222799
0.0109559670600187
0.0115473608423948
0.0123231732708986
0.0132204039232507
0.0142136332479734
0.0152856853375794
0.0164329359028761
0.0176709543613233
0.0190224866607318
0.0204970804959472
0.0221108733819735
0.0239066110433949
0.025947659264491
0.0282950244531915
0.0308775947471034
0.0332834748522484
0.0353589217236438
0.0371961275002701
0.0388357482320667
0.0403030310488986
0.0416157205723518
0.042786107220365
0.0438233643935556
0.0447350416117683
0.0455278975262975
0.0462083223413103
0.0467826019501375
0.0472570209143343
0.0476378962246514
0.0479315565190013
0.0481442995142989
0.0482823367907581
0.0483517384528671
0.0483583815382864
0.0483079059204516
0.0482056787328313
0.0480567686716535
0.0478659283742867
0.0476375848463796
0.0473758404342461
0.0470844651748931
0.046766907938461
0.0464263091120043
0.0460655143446922
0.0456870880647871
0.0452933319769482
0.044886301255094
0.0444678186033639
0.0440394916415911
0.0436027275783708
0.0431587469182407
0.0427085968078204
0.0422531628830103
0.0417931795969731
0.0413292388915036
0.0408617972300461
0.0403911807920284
0.0399175888088611
0.0394410946591562
0.0389616447429028
0.0384790543407499
0.0379930006351854
0.0375030111717456
0.0370084484949642
0.0365084869246558
0.0360020843353085
0.0354879411728528
0.034964445514457
0.0344295759197559
0.0338808495520019
0.0333153292565716
0.0327292603703762
0.0321175709604245
0.0314733876445539
0.0307869765994582
0.0300449281288822
0.0292242767637864
0.0282521505560254
0.0273590723290201
0.0270520268287075
0.0273172598819362
0.0280141921895266
0.0290120227800533
0.0302314131272139
0.0316402865521358
0.0332110217423325
0.034879454395301
0.0365870341939649
0.038282124561646
0.039903152042677
0.0413700017968689
0.0426809440917171
0.0438889281219546
0.0450645084275481
0.0462955674989511
0.0477245203442876
0.0495216345652106
0.05169893487947
0.054270971233746
0.0572656392959271
0.0606149922612297
0.0637872615664786
0.0650425304450638
0.0636755229976178
0.0602357460420667
0.0567854459170435
0.0571030510726904
0.0549400842212617
0.0516610521829679
0.0458215415972063
0.0371460195720416
0.0307931643728364
0.0241950567004097
0.0181190065788304
0.0152833502965102
0.0137944868550673
0.0127815410721452
0.0120951019186743
0.0117240463000431
0.0116816237015702
0.0119741787440297
0.0125477267134028
0.0133175841414606
0.0142202235894818
0.015229849170041
0.016329970217947
0.0175181197020803
0.0188107351340952
0.0202303769854908
0.0217864251297338
0.0234942349525664
0.0253930874656121
0.0275389376443156
0.0299824004959196
0.0326397883459645
0.0351168994048527
0.0372687492693561
0.039179361820203
0.0408873473504986
0.042417602609967
0.043787543074182
0.0450094761547936
0.0460927019633653
0.0470449700217572
0.0478732541492759
0.0485841864268234
0.0491843066701571
0.0496801662278798
0.0500783558879427
0.050385482655932
0.0506081230265635
0.0507527646921489
0.0508257479711947
0.0508332117206442
0.0507810470631234
0.0506748601122495
0.0505199451615604
0.0503212663979842
0.0500834502760717
0.0498107797203054
0.0495071913857205
0.0491762888522326
0.0488213539352053
0.0484453610463267
0.0480509917562739
0.0476406534200348
0.0472164965982117
0.0467804303601596
0.0463341400252857
0.0458791028730666
0.045416602665935
0.0449477436450744
0.0444734630752671
0.0439945422690355
0.0435116159451488
0.0430251799408564
0.0425355970833444
0.0420431012405735
0.0415477991555544
0.0410496701799559
0.0405485630431615
0.0400441900744523
0.0395361169169002
0.039023749077274
0.0385063106108384
0.0379828191965098
0.0374520477074644
0.0369124780687462
0.0363622096397392
0.0357988975087467
0.0352197333373716
0.0346211963250657
0.0339985799834423
0.0333455511658363
0.0326530986945623
0.0319087162837461
0.0310906286687073
0.0301319635719353
0.0292474849319683
0.028917907331667
0.0291539504836028
0.0298310477481316
0.0308255500296824
0.0320577359393046
0.0334913082443137
0.0350942150976482
0.0368014080087861
0.0385522203221582
0.0402921915708429
0.0419579120162808
0.0434727949083895
0.0448353833125919
0.0460977858346922
0.0473307523183176
0.0486228950640737
0.050114288776318
0.0519676086913052
0.0542001087101847
0.0568258289426227
0.0598606327455754
0.0632211838133622
0.0663779601385707
0.0676658517068019
0.0664168332912074
0.0631517805862839
0.0597305745433894
0.0597091224791187
0.0574503875780626
0.0542195506115254
0.0486494606241434
0.039873635570974
0.0333578591999858
0.0271935722615824
0.0203670059692549
0.0168281941831885
0.0151047676048055
0.0139933608352141
0.0132405711439842
0.0128155620724935
0.0127277826088244
0.0129836626141751
0.013532195287385
0.0142895194838231
0.0151920655814985
0.0162136209533364
0.0173381133580326
0.0185638088020963
0.019907594518859
0.0213916095437673
0.023024698465806
0.0248208551293462
0.0268155079516652
0.0290574304513363
0.0315881697615426
0.0343147428368805
0.0368597311900061
0.0390850892749569
0.0410668491329285
0.0428414309013586
0.0444331561678683
0.0458590367414949
0.0471313606290035
0.0482595285296651
0.049251471862039
0.0501143704835101
0.0508550926863387
0.0514804291083099
0.0519971958582874
0.0524122560514306
0.0527324936102058
0.0529647622058534
0.0531158237278524
0.0531922864612573
0.0532005484974878
0.0531467493384262
0.0530367309470781
0.0528760099074401
0.0526697593079058
0.052422800967016
0.0521395932985005
0.0518242377135974
0.0514804890583244
0.0511117672625815
0.0507211723532314
0.0503115000230691
0.049885260587922
0.0494446974994178
0.0489918038430088
0.0485283405849009
0.0480558532384546
0.0475756872159112
0.0470890025095939
0.0465967869415004
0.0460998678906478
0.0455989223491557
0.0450944853275004
0.0445869564251866
0.0440766046174181
0.0435635708668315
0.0430478687452782
0.0425293821805416
0.0420078609119971
0.0414829115827724
0.0409539862229494
0.0404203630817117
0.0398811249758225
0.0393351240688326
0.0387809431956877
0.0382168120182346
0.0376405440581247