/*--------------------------------*- C++ -*----------------------------------*\
  =========                 |
  \\      /  F ield         | OpenFOAM: The Open Source CFD Toolbox
   \\    /   O peration     | Website:  https://openfoam.org
    \\  /    A nd           | Version:  7
     \\/     M anipulation  |
\*---------------------------------------------------------------------------*/
FoamFile
{
    version     2.0;
    format      ascii;
    class       volScalarField;
    location    "10000";
    object      nut;
}
// * * * * * * * * * * * * * * * * * * * * * * * * * * * * * * * * * * * * * //

dimensions      [0 2 -1 0 0 0 0];

internalField   nonuniform List<scalar> 
15600
(
1.6259700621774e-07
1.48481677421141e-07
8.63298312225264e-08
3.36977665319366e-08
8.15540180366379e-09
5.31675444837831e-09
5.51315845544105e-09
4.37541365238864e-09
3.71952990596521e-09
3.60228736647972e-09
3.76207792269777e-09
4.15073035883534e-09
4.83300049503374e-09
5.93672634625999e-09
7.68497873728538e-09
1.03282052179152e-08
1.42151606022043e-08
1.98299034842094e-08
2.78819656615706e-08
3.92470316650134e-08
5.48591556998267e-08
7.55424305142766e-08
1.02043405890093e-07
1.34419877211239e-07
1.71013898797953e-07
2.09055918425629e-07
2.44300988198877e-07
2.72315894702687e-07
3.38991722351909e-07
4.32238375035813e-07
5.11893041124694e-07
5.81537636358782e-07
6.4516636091789e-07
7.0357830196013e-07
7.56435580714123e-07
8.0321825945291e-07
8.4478525335972e-07
8.81169117838734e-07
9.12496618850917e-07
9.38919521134808e-07
9.60634819853493e-07
9.77880392263347e-07
9.90931749548577e-07
1.00009080825829e-06
1.00567771636159e-06
1.00802030131493e-06
1.00744639144186e-06
1.00427628157178e-06
9.98817432562172e-07
9.91360129679532e-07
9.82174794108826e-07
9.71510073562706e-07
9.59592155518005e-07
9.46624599908789e-07
9.32788969947889e-07
9.18245634202002e-07
9.03135360517864e-07
8.8757990797648e-07
8.71681828626359e-07
8.55531860128816e-07
8.39203979824309e-07
8.22759295280786e-07
8.06250333448826e-07
7.89716804941151e-07
7.73188937340299e-07
7.56689093336147e-07
7.40232141574672e-07
7.23826134305529e-07
7.07472856620794e-07
6.91168195256211e-07
6.74902536906769e-07
6.58660752238804e-07
6.42422504323858e-07
6.26161649065349e-07
6.0984668740763e-07
5.93439043019626e-07
5.76894319062156e-07
5.60158101737153e-07
5.43169762625843e-07
5.25852746208434e-07
5.08132625646346e-07
4.89807188543109e-07
4.70975749003772e-07
4.5168449903961e-07
4.31707741842967e-07
4.10658629705692e-07
3.88299144693955e-07
3.64085539776242e-07
3.37752213965004e-07
3.08494597392971e-07
2.75261304463595e-07
2.3333356986483e-07
2.096141854779e-07
2.27515903435321e-07
2.41723029891231e-07
2.53083200438026e-07
2.56061047244351e-07
2.52713692279078e-07
2.45523914692461e-07
2.37657494659498e-07
2.28345040535194e-07
2.19060274056624e-07
2.09917578916325e-07
2.01001616327665e-07
1.89212214706161e-07
1.75301423782922e-07
1.60310751006916e-07
1.45067318467646e-07
1.30597379807614e-07
1.18516383542425e-07
1.11819329584026e-07
1.10426275708861e-07
1.15857383555134e-07
1.32930341799134e-07
1.66029500829384e-07
2.10307287962966e-07
2.04638873362309e-07
1.70346940204407e-07
1.40323033934877e-07
1.52822664679839e-07
1.30448930366476e-05
1.19327770445918e-05
6.85930365349636e-06
2.84959528440017e-06
7.53142309384903e-07
4.97204918478108e-07
5.17352543479554e-07
4.12539525990311e-07
3.48876121071425e-07
3.36279699591765e-07
3.49666123677902e-07
3.84123717421233e-07
4.45160709723854e-07
5.43721825227089e-07
6.99372278446013e-07
9.33965828682626e-07
1.27873397524922e-06
1.77466920315878e-06
2.48235220881238e-06
3.47716598045858e-06
4.83626277289071e-06
6.61064035710595e-06
8.84454469315089e-06
1.15304410746762e-05
1.45001119137227e-05
1.74862109964778e-05
2.0035657178584e-05
2.15984783438356e-05
2.61993533710206e-05
3.28733865375315e-05
3.84307236383538e-05
4.31418457914072e-05
4.73687000934756e-05
5.11773939262856e-05
5.4558922202788e-05
5.7483615079239e-05
6.00801923217401e-05
6.23588612074221e-05
6.43343251508316e-05
6.60200544599292e-05
6.74301598009722e-05
6.85795304688972e-05
6.94840460417985e-05
7.01602717867783e-05
7.06252829360675e-05
7.0896309325292e-05
7.0990489766796e-05
7.09245913213588e-05
7.07148100007594e-05
7.03765907826978e-05
6.99245097965773e-05
6.9372177619766e-05
6.87321933423859e-05
6.80161162219443e-05
6.72344739523059e-05
6.63967772396866e-05
6.55115775439953e-05
6.45864690813184e-05
6.3628022474403e-05
6.26422173134464e-05
6.16341347708452e-05
6.06081045254548e-05
5.95679667476559e-05
5.8516821236226e-05
5.74571891905423e-05
5.63910966605059e-05
5.53200874620559e-05
5.42452535259343e-05
5.3167259116345e-05
5.20863551536283e-05
5.10023955331346e-05
4.99148286440338e-05
4.88227074609528e-05
4.77246436826364e-05
4.66188233116145e-05
4.55028866107707e-05
4.43739865393035e-05
4.32285040118732e-05
4.20622528966359e-05
4.0869825813938e-05
3.96457929871734e-05
3.83707936877986e-05
3.70435500502461e-05
3.56719838724603e-05
3.42440748033251e-05
3.27297129306127e-05
3.11098415630543e-05
2.93385724627227e-05
2.73927457256028e-05
2.52010758787858e-05
2.26654859798224e-05
1.94016951763084e-05
1.76904617797563e-05
1.94929151194621e-05
2.07199873970657e-05
2.1668561701455e-05
2.1928722935801e-05
2.16808462166116e-05
2.11237132655601e-05
2.04921759188192e-05
1.97085380141491e-05
1.89073639910283e-05
1.80994010288717e-05
1.72869957638624e-05
1.62258307760798e-05
1.50195166501586e-05
1.37444986498479e-05
1.24575613053623e-05
1.12434414202429e-05
1.02402631919115e-05
9.67224220012454e-06
9.48442983617485e-06
9.81350917494728e-06
1.09763090172994e-05
1.31035987243867e-05
1.55277932954166e-05
1.4160395175722e-05
1.18051177067078e-05
1.02544336240695e-05
1.19230912860677e-05
9.64507524203949e-05
9.36410641698781e-05
6.93211330246389e-05
3.67330533839487e-05
1.16448660151e-05
7.04477609515398e-06
7.46844586822184e-06
6.05039695700116e-06
5.12175170404099e-06
4.91654261735576e-06
5.09162458243241e-06
5.56481412448593e-06
6.39994807943991e-06
7.74663839252012e-06
9.85674610571768e-06
1.29841365320877e-05
1.74478224183286e-05
2.36382921612351e-05
3.20331411094427e-05
4.30440689329914e-05
5.68626994775238e-05
7.33697742916119e-05
9.2168330988322e-05
0.000112338788450806
0.000132356194249664
0.000150753536519845
0.00016674057502832
0.000183148817518328
0.000212183558791921
0.00024472104408543
0.000270151779429265
0.000291250878123745
0.000310093895134661
0.000327384928695973
0.000343374290848129
0.00035733129932033
0.000369702633825323
0.000380578452937495
0.000390052487427953
0.000398203454783648
0.000405106184661848
0.000410833645304837
0.000415459209834296
0.000419056348800685
0.000421698657826062
0.000423459011545716
0.000424409015955865
0.000424618240678006
0.000424153679381586
0.000423079231474086
0.000421455367744022
0.000419338840055313
0.000416782549613294
0.000413835463038372
0.000410542643924809
0.000406945308311104
0.000403080995374033
0.000398983583818946
0.000394682982508842
0.00039020668270989
0.000385578866201542
0.000380820541193958
0.000375950595772533
0.000370985008234976
0.000365937314510225
0.000360818890899617
0.000355638998002126
0.000350404870347818
0.00034512178116795
0.000339793067299007
0.000334420153711027
0.000329002480493125
0.00032353748297514
0.000318020353987901
0.000312444005357647
0.000306798505663223
0.000301071131383875
0.000295245098098024
0.000289300031951693
0.000283209133863934
0.000276943470393537
0.000270424633858071
0.000263836969516596
0.000257151265375385
0.000250190364405998
0.000242803130296774
0.000234856265600135
0.000226136042000886
0.000216409059850034
0.000205388379962132
0.000192080715511085
0.000174305579247475
0.000162245040545823
0.000168423537196209
0.000177076311610479
0.000183757266476004
0.000185990208760608
0.000184858524836174
0.000181641165102487
0.000177678991864296
0.000172502579595553
0.000166871034908837
0.000160919592063389
0.000154628871295497
0.000146466912407147
0.000137130766984177
0.000127205084437387
0.000117084657877443
0.00010734219555681
9.90462909873053e-05
9.38655439259333e-05
9.12954520096717e-05
9.2220830598208e-05
9.84893677817089e-05
0.000110181094173753
0.000121007697261178
0.00011330618347469
9.73374620071509e-05
8.60298326187526e-05
8.95597369107557e-05
0.000245206117158403
0.000249272132651088
0.000201937298643083
0.000122892586513353
5.70646656834693e-05
3.90680111862535e-05
4.24527790759285e-05
3.57383859755866e-05
3.06958716942245e-05
2.93978912821106e-05
3.01622786202656e-05
3.23870803533477e-05
3.6313936725302e-05
4.25106094941601e-05
5.19174745175709e-05
6.52453330742391e-05
8.32108871106217e-05
0.000106447228362925
0.000135651717754173
0.000171015914464943
0.000211942168373908
0.000257227720178585
0.000305397274864981
0.000353880422292397
0.000399186730147372
0.000439030878678587
0.000475109104315374
0.000517909848570679
0.000586782530425767
0.000657677924978272
0.000712418887092165
0.000758233792862678
0.000798982599471603
0.000836566046303237
0.000870306033239385
0.000899801381633017
0.000925822232417257
0.000948613128618673
0.000968406145467048
0.000985393253456215
0.000999751879983109
0.00101165010358348
0.00102125238040632
0.00102871978563507
0.00103421067515759
0.00103787957334596
0.00103987648142172
0.00104034573927914
0.00103942523811945
0.00103724565860074
0.00103393001149085
0.00102959324981745
0.00102434214695406
0.00101827526275258
0.00101148309807039
0.00100404829948894
0.000996046022578708
0.000987543960194868
0.000978602113573391
0.000969275401411895
0.000959612280855327
0.0009496549379343
0.000939441070727621
0.0009290028253035
0.000918367505961028
0.000907558074729375
0.000896593275011752
0.000885487792475264
0.000874252364821712
0.000862893811596644
0.0008514150449238
0.00083981490278182
0.000828088040438651
0.000816224440688348
0.000804209203178237
0.000792021438291643
0.000779634085214947
0.000767011503888372
0.000754109781046868
0.00074087143027496
0.000727232292066935
0.00071304958379118
0.000698489270658646
0.00068384160497785
0.000668619321099262
0.000652465848035611
0.00063507023249477
0.000615980203917363
0.000594651321983288
0.000570378712384894
0.000541374485028373
0.000502257280885989
0.000473939279033749
0.000485833667308169
0.000509205860777485
0.000528653613803353
0.00053779383589927
0.000538657719322873
0.000534341745445201
0.000527777765156866
0.000517770677235873
0.000505751271717381
0.000492151166167062
0.000476829812498122
0.000456104358713712
0.000431658029195592
0.000405337590363797
0.000378333339757088
0.000352141075075396
0.000329813747189311
0.000316107472304804
0.00030949850653637
0.00031203135528171
0.000328797980625905
0.000360175929075134
0.000388613982797514
0.000361092082802276
0.000299590145616547
0.000242343771583535
0.00023156106063515
0.000451332037087371
0.000462190930848789
0.00038609100823493
0.000237472853995438
0.000133905280801458
0.00011356620151666
0.000130995092620908
0.000117014707064709
0.000103231826117309
9.89870256137e-05
0.000100372625958933
0.000105289388283667
0.000114197704870217
0.000128260096602516
0.000149510419815167
0.0001790707173104
0.000217680347172358
0.000265534444993053
0.000323025170601784
0.000389485646048323
0.000462946900352755
0.000540929705100331
0.000621135940836856
0.000699460996989055
0.00077065964717338
0.000832688804910708
0.000891353040498417
0.000964955274610812
0.00108117948022499
0.00119920495623283
0.0012902095714945
0.00136647198508016
0.00143400881765331
0.00149502101567494
0.00154908984835931
0.00159643014889144
0.00163809338251488
0.00167451405131665
0.00170608698633552
0.00173313883718573
0.00175596929272113
0.00177485971454347
0.0017900826884321
0.00180190298893078
0.00181057891116546
0.00181636094039098
0.00181949088666624
0.00182020037968809
0.00181870981007647
0.00181522732775218
0.00180994825778391
0.00180305463655298
0.00179471511826434
0.00178508503160642
0.00177430669156477
0.00176250981874714
0.00174981205460411
0.00173631900519776
0.00172212463211471
0.00170731424820432
0.00169196312903973
0.00167613678425391
0.00165989326064447
0.00164328210199012
0.00162634524099717
0.00160911770512172
0.00159162786400868
0.00157389767329734
0.00155594283512335
0.001537772834786
0.00151939092269072
0.00150079384677188
0.00148197160895256
0.001462906711922
0.00144357367091686
0.00142393736911251
0.00140395240801142
0.0013835596500711
0.00136268582636209
0.00134123609000277
0.00131910170407806
0.00129607723552067
0.00127222257835864
0.00124788928378872
0.00122259307633522
0.00119570324652901
0.0011666574370015
0.00113468558021492
0.00109884100151717
0.00105779098174006
0.00100896685291042
0.000942986432273264
0.000894367245626111
0.000913307503665616
0.000956023709743583
0.000995111741081444
0.00101819768569148
0.00102710499095261
0.00102689387608332
0.00102224964539242
0.00101120399735629
0.000995484381975313
0.000975886127449366
0.000952037788072423
0.000917847349139302
0.000875928283684095
0.000830044631732996
0.00078273607812664
0.000736801209511663
0.000698075475099294
0.000675679805029869
0.000667181208905939
0.000675568427088689
0.000709736034778725
0.00077069858378051
0.000826688499739713
0.000773460335001242
0.000641769107247319
0.000497263203894526
0.000443897999136283
0.000724310688107175
0.000732078177518089
0.000623983355753911
0.000377766435121443
0.000226739536525229
0.000212185797032482
0.000268240615465547
0.000258339397315408
0.000235047925827478
0.000226489291335507
0.000227749029766978
0.000234569083238839
0.000247759497567288
0.000269474222602981
0.000303402115811618
0.000351055585754055
0.000412670389959782
0.00048743036951016
0.000575126100515106
0.000673981198661739
0.000780548922256727
0.000891251500540109
0.00100321815800919
0.00111095638501215
0.00120794233258306
0.00129331764627862
0.00137764752553893
0.00148721318842995
0.0016562866834137
0.00182643752919601
0.00195814927303715
0.00206873456380941
0.00216618698539203
0.00225296836425376
0.00232948391341127
0.00239658361268983
0.00245558136251381
0.00250712287963449
0.00255177917877395
0.00259002490544993
0.00262229463942989
0.00264899512948944
0.00267051866536655
0.00268724486133204
0.0026995426072748
0.00270776854064348
0.00271226595744242
0.00271336293151233
0.0027113709511072
0.00270658366697139
0.0026992761688693
0.00268970444932275
0.00267810533703141
0.00266469666130431
0.00264967772802912
0.00263323007763768
0.00261551769731672
0.00259668791779665
0.00257687194790928
0.00255618818769928
0.00253474107027007
0.00251262147404552
0.00248990937475023
0.00246667301919512
0.00244296997189979
0.00241884801306749
0.00239434553730913
0.00236949189031438
0.00234430758397841
0.00231880434197148
0.00229298504213755
0.00226684334499488
0.00224036328212913
0.00221351823645002
0.00218627010015402
0.00215856710829772
0.00213034254889831
0.00210151035234539
0.00207196360023885
0.00204156527442744
0.0020101549430204
0.00197746419093572
0.00194342037927415
0.00190827192724526
0.00187159907047679
0.00183254283437429
0.00179025367674663
0.00174359761537679
0.0016911570889919
0.00163088201138495
0.00155932893427152
0.00146288560920628
0.00138981080299318
0.00141308204824736
0.00147653677217692
0.00153994058384575
0.00158330998191606
0.00160659227878708
0.00161633956848268
0.00161891488767892
0.00161169697103786
0.00159630301362353
0.0015738097625593
0.0015434886001246
0.00149688978516546
0.00143734424452051
0.00137094362933289
0.00130211230143137
0.00123534142966113
0.00117978794865663
0.00114963173470725
0.00114204026771495
0.00116054854531521
0.00121731080776852
0.00131378566874313
0.00140285607021489
0.0013244770873723
0.00111266637798084
0.000861366073700401
0.000740954477879265
0.00106826990211547
0.00106094008481268
0.000919468239001733
0.000552687176830641
0.000332350780980058
0.000312401883594172
0.0004232965916499
0.000445585586765131
0.000418994021797648
0.000406631679056579
0.000407201325305617
0.000414514959915371
0.000430056438895635
0.000457628407519756
0.000503208425837982
0.000568756173505257
0.000653588210927666
0.000755558616138016
0.000873663392869321
0.00100486507731205
0.00114422945384524
0.00128725944091029
0.00143061694562127
0.00156761713313256
0.00169107019877284
0.00180203339518051
0.00191605715791645
0.00206701584352818
0.00229271181476563
0.00251751718774617
0.0026928119773243
0.002840435006355
0.00297004412886986
0.00308455945668025
0.00318536573196653
0.00327390220089724
0.00335174191274263
0.0034197560922287
0.00347870110691888
0.00352920939503646
0.00357185962985181
0.00360719279936553
0.00363572927787325
0.00365797154683914
0.00367440672833508
0.00368550490712914
0.00369171779854454
0.00369347650596043
0.00369118984046126
0.00368524281846489
0.00367599579196963
0.00366378384361257
0.00364891674228214
0.00363167922275633
0.00361233168936559
0.0035911110848252
0.00356823103443942
0.00354388372013746
0.00351824034132449
0.00349145472670651
0.00346366254387092
0.00343498190100843
0.00340551622984955
0.00337535378418403
0.00334456883274305
0.00331322273500573
0.00328136450515724
0.00324903124875842
0.00321624843448532
0.00318302994942132
0.0031493779940999
0.00311528260470035
0.00308072105102603
0.00304565654834126
0.00301003701113326
0.00297379237721566
0.00293683256508934
0.00289904217716189
0.00286027764996236
0.00282035645636605
0.00277906144736708
0.00273605950116198
0.00269114198937964
0.00264438134871113
0.00259538891209894
0.00254312000382099
0.0024864369681879
0.00242382509266466
0.00235335971948302
0.00227225052482731
0.00217612976531144
0.00204730428589124
0.00194627557687424
0.00196897093833578
0.00205181229716723
0.00214182794902386
0.00221027052930988
0.0022535416519439
0.00227880179364419
0.00229377272843009
0.00229529189173965
0.00228452886476003
0.00226265596664923
0.00222843110215756
0.00217119887687824
0.00209478949090875
0.00200782167708282
0.00191703882477816
0.00182901106497537
0.00175661926502919
0.00171944886269206
0.00171483532880962
0.00174655530022412
0.00182917531006492
0.00196408822443054
0.00208837540659181
0.00198753508118403
0.0016915609672723
0.00132615509898336
0.00112404040103334
0.00148207613102016
0.00144919410949301
0.00127223075108995
0.000773606280644194
0.00044558743848157
0.000407852215694051
0.000567441050941109
0.000657030860881813
0.000641522359468847
0.000628223778966664
0.000628457041384195
0.000635394956343406
0.000651610821661291
0.000683256527549923
0.000739180610123043
0.000821928535123467
0.00092964312170766
0.00105866289295236
0.00120700771106655
0.00137026989248273
0.0015420746244425
0.00171716622042838
0.00189181579500973
0.00205842398359423
0.00220973367443941
0.00234918614818693
0.00249717736491072
0.00269419603823446
0.00297878016157521
0.00325942207924406
0.00348022829490863
0.00366685367366221
0.00383029136608536
0.00397416976469804
0.00410082194065232
0.00421222380009492
0.0043102100836107
0.00439588677509278
0.00447020192026388
0.00453395287821358
0.00458786891985539
0.00463263144074636
0.00466889456733342
0.00469728896216448
0.00471842493506883
0.00473289069569679
0.00474125079555694
0.00474404356387866
0.00474177912296911
0.00473493764957814
0.00472396836312054
0.00470928885973097
0.00469128508582406
0.00467031173334893
0.00464669330891627
0.00462072447296732
0.00459267119634181
0.00456277280192928
0.00453124261308098
0.00449827176861478
0.00446402887809793
0.00442866084938928
0.00439229592163056
0.00435504354575838
0.00431699572284254
0.0042782282434261
0.00423880142006749
0.0041987606273583
0.00415813663008552
0.00411694564736678
0.0040751891942437
0.00403285349504447
0.00398990867648275
0.00394630720936284
0.00390198222745913
0.00385684435008624
0.00381077882038508
0.00376363936504915
0.00371524383420988
0.00366536203116308
0.00361371683280405
0.00355990836392565
0.00350359608784505
0.00344465958116279
0.00338265908427224
0.00331641502231464
0.00324450831909219
0.00316504342823957
0.0030755760743897
0.00297258287246293
0.00285075171223838
0.00268867403420677
0.00255715883379041
0.00257402533345964
0.00267315436553417
0.00279008440883544
0.00288676278461108
0.00295463139539269
0.00300038008252325
0.00303256671636964
0.00304751218716208
0.00304566186484289
0.00302803971354134
0.00299270945726186
0.00292698912818925
0.00283502469464694
0.00272801312430979
0.00261533157411506
0.0025059811200386
0.00241687912516462
0.00237315246728762
0.0023728033915012
0.00241964826128912
0.00252982576162886
0.00270406315745022
0.00286362613838646
0.00274332158296354
0.0023627767651504
0.00187997930270738
0.00158760473739133
0.00196264784322603
0.00189603879943385
0.00167956467952832
0.00105154872032881
0.000572533469671282
0.000498481246942755
0.000685383624143825
0.000870566807630666
0.00088932647661516
0.000881028459921627
0.000882553835791124
0.000889229811066976
0.000905216446135531
0.000939643586513532
0.00100474478416847
0.00110389307454332
0.00123396902258782
0.00138969695287973
0.00156796456282458
0.00176293650091038
0.00196688291978997
0.00217392804352065
0.00238003951554271
0.0025770206823449
0.00275804378342363
0.002929147276769
0.00311514534863881
0.00336186170304933
0.00370640472332993
0.00404319276924924
0.00431073336908468
0.00453770460085364
0.00473623216919309
0.00491076555150044
0.00506451801391445
0.00519995552880829
0.00531917786508942
0.00542353100508267
0.00551415863703369
0.00559202779624965
0.00565802244788156
0.0057129681198931
0.00575765586812832
0.00579284733595567
0.00581927847503761
0.00583765783979068
0.00584866485715897
0.00585294700697004
0.00585111757015975
0.00584375368306141
0.00583139519983116
0.00581454397839143
0.00579366386919286
0.00576918130679138
0.0057414864468881
0.00571093321873924
0.00567784165590768
0.00564249973608152
0.00560516438400608
0.00556606540935126
0.00552540564239973
0.00548336201095454
0.00544008866747674
0.00539571727125225
0.00535035847258454
0.00530410330094081
0.00525702406100448
0.00520917497505829
0.0051605925648764
0.00511129572186633
0.0050612854898785
0.00501054436676149
0.00495903528375072
0.00490669977558408
0.00485345584846406
0.0047991943065625
0.00474377503903501
0.00468702006322588
0.00462870758171443
0.00456855854982636
0.0045062340829044
0.00444126584149819
0.00437318777985274
0.00430168542411837
0.00422620985340851
0.00414546351581013
0.00405776247616717
0.00396084120685004
0.00385173992210347
0.00372622484716374
0.00357803640923002
0.00338252685001057
0.00321891202047065
0.0032251344150694
0.00333653567169157
0.00347915570400281
0.00360573363873969
0.00370171925433169
0.00377222524362476
0.0038259825653096
0.00385871194935948
0.00386989321787603
0.00386012835884855
0.00382659290597023
0.00375475771460192
0.00364893990849997
0.00352286516963127
0.00338874628229205
0.00325831135393963
0.00315274575800182
0.00310269722243711
0.00310722449087761
0.00317004524893156
0.0033081459884156
0.00352107943273779
0.00371474692655532
0.00357794766126502
0.00311490077737205
0.0025138198401928
0.00212554486959724
0.00250685365798925
0.00240023961607319
0.00213844648930088
0.00139437868166109
0.00072019841470581
0.000589865734125372
0.000775991569648873
0.00106605224099428
0.00114960988517655
0.00115644713167855
0.00116249274730113
0.00117016098632676
0.00118591413723138
0.00122239590858853
0.00129569437124459
0.00141037740948843
0.00156214465980107
0.0017440868921705
0.00195184178832046
0.00217813304134575
0.00241397868664188
0.00265299918575528
0.00289095909094578
0.00311937633000656
0.00333221565061062
0.0035381098223464
0.00376567370805278
0.00406470960927671
0.00446932915141307
0.00486190835332937
0.00517680604120809
0.00544494427332774
0.00567943115207816
0.00588556974646702
0.00606737120493394
0.00622775212461763
0.0063690790620307
0.00649293988407367
0.00660067572105749
0.00669342580447668
0.00677223063535923
0.00683806129155267
0.00689184658308894
0.00693447955269357
0.00696682187427653
0.00698970232896627
0.00700391498995279
0.00701021623777809
0.00700932230158564
0.00700190715006569
0.00698860125609761
0.00696999085316086
0.00694661793743211
0.00691898123173599
0.00688753659849879
0.00685269806859204
0.00681484041354684
0.00677430099502339
0.00673138113502439
0.00668635011811011
0.0066394458094219
0.00659087599134281
0.00654082154568202
0.00648943713027476
0.0064368528068382
0.00638317556214153
0.00632849035571192
0.00627286085907067
0.00621632988591969
0.00615891946336605
0.00610063055069958
0.00604144222562677
0.00598131044512785
0.00592016594307048
0.00585791164217054
0.00579441848935392
0.00572952088461909
0.00566300892628071
0.0055946208704462
0.00552402850268294
0.0054508306330152
0.0053744894494601
0.00529442036930256
0.00521012078063525
0.00512089669484652
0.00502533099575604
0.00492149318246156
0.00480676535988155
0.0046776882722469
0.00452934985564761
0.00435455265597956
0.00412593022018411
0.00392939539937927
0.00392087431383068
0.00404018537918233
0.00420617463331593
0.00436301173419087
0.00448954662531524
0.00458830085113029
0.00466744272368146
0.00472190727955805
0.00474998175768027
0.00475155961234798
0.00472273148221963
0.00464729045894178
0.00452961346825972
0.00438583625357275
0.00423110850725375
0.00408011165932187
0.00395844516782699
0.00390211927819812
0.00391151961059384
0.00399017073896364
0.0041553653076268
0.00440520681024569
0.00463118337606802
0.00448066364418141
0.00393906707858094
0.00322094365641052
0.00273295230471289
0.00311207622997711
0.00296053978136749
0.00264662106125765
0.00180647409488548
0.000896634567630447
0.000686273062788481
0.000848393636446605
0.00122813257686509
0.00140915195349687
0.00144662059222197
0.00146246004407089
0.00147363942442631
0.00149011964935682
0.00152852776038243
0.0016092486604615
0.00173854406025289
0.00191118558998223
0.00211869563766224
0.0023553893584012
0.00261256997709726
0.00288011024896954
0.00315122284395268
0.0034215727274876
0.00368266765564443
0.00392949304036826
0.00417310569693776
0.0044451992569819
0.00479824492547454
0.00526227566148705
0.00570972855433705
0.00607205778991436
0.0063817075140189
0.00665263686973312
0.00689098582405527
0.00710147756890014
0.00728744541495078
0.00745152180010803
0.00759553541250797
0.00772102451537097
0.00782930087417658
0.00792156118832068
0.00799892127423501
0.00806244625962931
0.00811315872099596
0.00815204386150837
0.00818004833249683
0.00819807845075172
0.00820699716090281
0.00820762145050825
0.00820072013468895
0.00818701256201695
0.00816716786546852
0.00814180507158085
0.00811149413981392
0.00807675579856295
0.00803806390291452
0.00799584769853012
0.00795049386275749
0.00790234821465953
0.00785171973766159
0.00779888165693088
0.00774407303339277
0.00768750197258633
0.00762934666932277
0.00756975717226377
0.00750885702065185
0.00744674442630711
0.00738349309973472
0.00731915272030175
0.0072537490015019
0.00718728334009018
0.00711973188295134
0.00705104406746838
0.00698114024658357
0.00690990864796502
0.00683720072417918
0.00676282573546677
0.00668654221276834
0.00660804884717796
0.00652696870568947
0.0064428388256297
0.00635505181054684
0.00626291155935799
0.00616573714086752
0.00606266926928482
0.00595216297527349
0.00583205780065319
0.00569940489670186
0.00555027015800392
0.00537910177312231
0.00517778572596956
0.00491675983204287
0.00468715197196076
0.00466057557871481
0.00478345597970489
0.00496976336677676
0.00515613024019726
0.00531461053060267
0.0054442918235338
0.00555203402100769
0.00563171934692485
0.00568021675384494
0.00569642209394326
0.00567515047667238
0.00559867316207083
0.00547134125133282
0.00531153326715037
0.00513734848378644
0.00496656860993215
0.00482925855055963
0.00476649739820665
0.00478015327392559
0.00487351716971105
0.00506389709695138
0.0053480184848266
0.00560437808840117
0.00544292310062061
0.00482804293175561
0.00399600781130795
0.00340603827500247
0.00377621270813847
0.00357578300259557
0.00320290326470011
0.00228823753111811
0.00111156586161788
0.000792074347173632
0.00091314677554115
0.00134886577361585
0.00165386858923586
0.00174351100188102
0.00177706864784348
0.00179570986397505
0.00181492896321077
0.00185580380716472
0.00194343517834787
0.00208639999746958
0.00227896667865935
0.00251125098453937
0.00277622545428922
0.00306382005952435
0.00336286618242786
0.0036662456214528
0.00396961826486827
0.00426470226385744
0.00454760976148105
0.0048315307470202
0.0051504757267408
0.00555838070624072
0.0060804928081677
0.00658139486579367
0.00699071135576578
0.00734176349191074
0.00764923363697654
0.00792005124059151
0.00815956714624588
0.00837150096683519
0.00855874697615675
0.00872337088992339
0.00886710566083893
0.00899143374249382
0.00909770554293129
0.00918717862077767
0.00926105078802037
0.00932047008373242
0.00936654086191297
0.00940032314157413
0.0094228309991585
0.00943502960842195
0.00943783262778759
0.00943209994706952
0.00941863638343273
0.00939819095456376
0.00937145731293443
0.00933907394333034
0.00930162485797081
0.00925964227120585
0.00921360872944924
0.00916395935693854
0.00911108386724495
0.00905533057175182
0.00899700787490493
0.0089363861112889
0.00887370075886516
0.00880915381189959
0.00874291566951987
0.00867512686834013
0.00860589937690292
0.0085353174944588
0.00846343834995629
0.0083902919522375
0.00831588076328028
0.00824017864120225
0.00816312916024469
0.00808464296438577
0.00800459428328884
0.00792281580548445
0.00783909244145367
0.00775315202148277
0.00766465467367021
0.00757317591133005
0.00747819248339483
0.00737902828402373
0.00727488268797722
0.00716490837561346
0.00704807185906866
0.0069226913457831
0.00678639089666324
0.00663591405497557
0.00646688256080309
0.00627314809878867
0.00604571319609124
0.00575331968695271
0.00549104711356051
0.00544387804640885
0.0055662413319376
0.00576938389218978
0.00598367696532111
0.00617454526170702
0.00633701492026742
0.00647593491692249
0.00658381271031296
0.00665586904272572
0.00668971788223877
0.00667872116697629
0.00660377044917925
0.00646912398721081
0.00629520048772095
0.00610298292388974
0.00591341339791889
0.00576096714115847
0.00569135737999822
0.00570799398615951
0.00581398699424564
0.00602669763363026
0.00634196992198129
0.0066271075265483
0.00645773310178924
0.00577572624521295
0.00483449692270618
0.00414175280803209
0.00449752238552534
0.0042449077919162
0.00380704430574505