/*--------------------------------*- C++ -*----------------------------------*\
  =========                 |
  \\      /  F ield         | OpenFOAM: The Open Source CFD Toolbox
   \\    /   O peration     | Website:  https://openfoam.org
    \\  /    A nd           | Version:  7
     \\/     M anipulation  |
\*---------------------------------------------------------------------------*/
FoamFile
{
    version     2.0;
    format      ascii;
    class       volScalarField;
    location    "10000";
    object      p;
}
// * * * * * * * * * * * * * * * * * * * * * * * * * * * * * * * * * * * * * //

dimensions      [0 2 -2 0 0 0 0];

internalField   nonuniform List<scalar> 
15600
(
0.884592733952935
0.892259925302123
0.881557971962355
0.923971096015107
0.96320366135341
0.986686373682248
0.997975040913017
1.00665088908128
1.01160006266955
1.01581439204803
1.01876367995203
1.02113342269852
1.02301743484376
1.0245189372362
1.02575651481916
1.02689143222104
1.02818554022039
1.02966644102026
1.03138769206913
1.03337661012936
1.03557517592414
1.03772908962707
1.03977504860805
1.04175424026981
1.04354905598047
1.04513275778384
1.04656780805176
1.04609909875938
1.04673953379662
1.04967674747044
1.05369382855052
1.05860485543266
1.06413253229107
1.07014546443695
1.0765171183388
1.08315796554741
1.08998784926601
1.09693923388525
1.10395222773395
1.11097472235682
1.11796127232443
1.12487281949141
1.13167631718267
1.13834433995592
1.14485471039762
1.15119003855379
1.15733727678084
1.16328723303591
1.16903410545486
1.17457501781973
1.17990958911273
1.18503952609953
1.18996825863489
1.19470060704081
1.19924249564278
1.20360069391552
1.2077826109689
1.21179609242293
1.21564929075066
1.21935052636255
1.22290823557239
1.22633083430304
1.22962663956049
1.23280389738939
1.23587071168776
1.23883504076451
1.24170468700199
1.24448730202628
1.24719039847971
1.24982136707741
1.25238750665525
1.25489605011388
1.25735421637876
1.25976923842519
1.26214845279598
1.26449931090158
1.26682955015601
1.26914713148767
1.27146061249987
1.27377883184811
1.27611184952874
1.27846968077879
1.28086482954986
1.28330968518295
1.28582225145072
1.28841625526646
1.29111902101951
1.2939434821137
1.29693789913935
1.30010256677154
1.3035388037973
1.30716607727042
1.31127405363501
1.31604163099766
1.31982473224333
1.32370069809494
1.32723135993522
1.33049087176319
1.33329948009501
1.3354630908714
1.33646774200922
1.33621880376932
1.33438032685851
1.33084484611153
1.32534756183102
1.31872683029425
1.31075369773427
1.30082579891736
1.28830222505996
1.27174873991354
1.24837780904572
1.21170920842949
1.15962984199124
1.08996732008915
0.993391022296888
0.87645912882992
0.758365351265463
0.751341414767508
0.789746746993524
0.859612102961287
0.884617247633452
0.892400826208846
0.881791989899177
0.923532678261176
0.962488982371673
0.986153208723551
0.997615029913027
1.0063879483679
1.01142096308841
1.01567532810574
1.01866717571417
1.02106365030685
1.02297026250729
1.02448957454679
1.02573843476287
1.02687364228818
1.02815849440528
1.02962647029564
1.03133152632894
1.03330422866436
1.03549404629894
1.03764908110502
1.03969854430912
1.04168250401927
1.04348390181508
1.04507658625809
1.0465225957427
1.04608086525505
1.04676829446561
1.04971779031743
1.05373697155966
1.05864920054402
1.06417611638818
1.07018735513278
1.07655654995515
1.0831943705848
1.09002074409584
1.09696832651214
1.1039773370435
1.11099576968998
1.11797826385374
1.12488583355751
1.13168549090889
1.13834985700024
1.14485678952137
1.15118892324746
1.15733322615286
1.16328051394554
1.16902498596621
1.17456376186169
1.17989645230047
1.18502475257583
1.18995207881841
1.19468323612532
1.19922413281434
1.20358152152172
1.20776279048844
1.21177578597565
1.21562872574327
1.2193298869269
1.22288758832616
1.22631022937981
1.2296061395817
1.2327835608063
1.23585058763496
1.23881517002955
1.24168510267048
1.24446803012294
1.24717145855595
1.24980277273465
1.25236926602963
1.25487816627011
1.25733668770908
1.2597520588885
1.26213161229189
1.26448279527334
1.26681334171962
1.2691312085289
1.27144495055056
1.27376340163818
1.27609662373641
1.27845461820277
1.2808498804964
1.28329479575211
1.28580739820937
1.2884013884955
1.29110415862703
1.2939285660625
1.2969230998417
1.30008782529537
1.30352505914449
1.30715198664724
1.31126171031826
1.31605079598889
1.31984988664349
1.32374288094153
1.32728107580205
1.33053863188244
1.3333295504115
1.33545130989758
1.33639383894786
1.33606935906259
1.33414497417995
1.33051941241189
1.3249527997273
1.31827544952452
1.3102219638657
1.300182280494
1.28749539360739
1.2706790289832
1.24685990576177
1.20964504886482
1.15708275423659
1.08699414126952
0.990502138953304
0.874850907899197
0.759436425788628
0.752856160560174
0.79034158404628
0.859715396108754
0.884721962814577
0.892788845075258
0.882569617443428
0.92354461897038
0.961903291422732
0.985697309225438
0.997292698214244
1.00614916817786
1.01125517661908
1.01554440173551
1.01857470207143
1.02099678783798
1.02292537319407
1.02446245521666
1.0257234614409
1.02686025918793
1.02813463487788
1.02958528874387
1.03126636522419
1.03321056180265
1.03537400691337
1.03751220905278
1.03954931930974
1.04152338302135
1.04331983117482
1.0449098140803
1.04635567707827
1.04599726120109
1.04678761858796
1.04974957754634
1.05376557371813
1.05867346880904
1.06419358862772
1.07019768085067
1.07655938917383
1.08318967152999
1.09000853609202
1.09694888103228
1.10395102567223
1.1109630568119
1.1179396773986
1.1248419465841
1.1316369020837
1.13829717425375
1.14480061594165
1.15112984541176
1.15727180503814
1.16321727805007
1.16896042661902
1.17449833027652
1.1798305582212
1.18495876415149
1.18988632350038
1.1946180022737
1.19915967193721
1.20351804895502
1.20770051741998
1.2117148997981
1.21556924792787
1.21927182758285
1.22283106386528
1.2262553384752
1.22955295463657
1.23273213613316
1.23580096474319
1.23876737968436
1.24163916649493
1.24442396216918
1.24712926673538
1.24976246011629
1.25233083209618
1.25484160799998
1.25730200077989
1.25971923855435
1.26210065476972
1.2644536982908
1.266786106621
1.26910583991959
1.27142146061337
1.27374180708414
1.27607694908253
1.27843691363428
1.28083423216952
1.28328125771244
1.28579609607076
1.28839242952172
1.29109783877799
1.29392502889494
1.29692301776428
1.30009117934577
1.3035333992453
1.30716425343564
1.3112653183873
1.31605723072532
1.3198519281614
1.32374784625939
1.3272790257739
1.33052203887477
1.33328259441015
1.33535361020159
1.33623170544576
1.33583571491482
1.33383450677002
1.33013475716195
1.32451493222512
1.31778604934481
1.30965071650889
1.29949757345299
1.28664609676314
1.26957178339994
1.24535717340952
1.20774051587083
1.15492506395523
1.0848093731723
0.989121600683432
0.875854044090039
0.763841324306061
0.756786402783943
0.79197889296549
0.860027854327756
0.884951741450334
0.89347400569345
0.884014809867357
0.924223843358477
0.961488452195067
0.985305326209314
0.996991143749349
1.00592091011386
1.01109462745918
1.01541440275696
1.01848113438097
1.02092930935822
1.02288105653816
1.02443742889067
1.02571242341109
1.02685196236593
1.02811263916716
1.02953878218313
1.03118507781156
1.03308609807941
1.03520467703128
1.03730963041065
1.03932183619174
1.04127586128477
1.04306155683611
1.04464567510388
1.04609192544996
1.04587836273479
1.04681024105869
1.04977871018284
1.05378280878153
1.05867704664028
1.0641812709579
1.07016980271695
1.07651632672196
1.08313228208708
1.08993761792542
1.09686544619842
1.10385616558915
1.11085793823055
1.11782550398814
1.12471993569143
1.13150825918277
1.13816307210488
1.14466217719781
1.15098812896366
1.15712779630794
1.16307188256549
1.16881446679251
1.1743525446275
1.17968560277789
1.18481521544163
1.18974468281059
1.19447870068764
1.19902307561959
1.20338447127719
1.20757018993085
1.21158795450503
1.21544585114692
1.21915215664668
1.22271522541965
1.22614341181699
1.22944499382675
1.23262817577022
1.23570102462513
1.23867146823623
1.24154728363683
1.24433610206941
1.24704542034412
1.24968261751609
1.25225498483598
1.2547697512144
1.25723413560153
1.25965537411435
1.26204081116922
1.26439790841411
1.26673442066098
1.26905832631027
1.27137821458577
1.27370294862547
1.27604263253459
1.2784073869478
1.28080982530187
1.28326223632207
1.28578287659267
1.2883854661338
1.29109794057537
1.29393284156588
1.29694005058827
1.30011790868721
1.30357210059886
1.30721522727607
1.3112933001694
1.31605429658628
1.31981593922189
1.32369271774555
1.32719507737064
1.33040444360166
1.33311502361675
1.33511852898523
1.33592149539675
1.33544855745361
1.33336931145031
1.32960008199644
1.32393456164943
1.31715409044713
1.30892991493338
1.29865234965467
1.28562019261941
1.26826938998474
1.24366598837604
1.20571711045426
1.15277209420078
1.08284801290227
0.988348480227678
0.878107715742496
0.770145824034484
0.762636468443958
0.794876131826374
0.860677189240834
0.885304229799937
0.8943871396668
0.885864576527821
0.925368485458036
0.961337372449269
0.984994863186821
0.996701281640646
1.00568455823969
1.01092859460776
1.01527895486209
1.01838288382972
1.02085968552231
1.02283776896786
1.02441688678817
1.02570911939669
1.02685312669729
1.0280974159542
1.02949320012206
1.0310965967227
1.03294480318047
1.03500812370414
1.0370719880878
1.03905433162926
1.04098545850632
1.04276054967956
1.04434257299098
1.04579532762216
1.04574978814972
1.04682752814975
1.0497996092094
1.05378915294497
1.05866446332376
1.06414749547194
1.07011542334174
1.07644206379943
1.08303931520002
1.08982720931945
1.09673903874268
1.10371527688161
1.11070415059567
1.11766042285059
1.12454516266633
1.13132536385008
1.13797356855412
1.14446750498195
1.15078963822312
1.15692673761731
1.1628694005418
1.16861159745817
1.17415021557899
1.17948463587457
1.18461633128957
1.18954850669141
1.19428576928694
1.19883384370731
1.20319931942913
1.20738942172332
1.21141184482251
1.2152746486723
1.21898603402735
1.22255429922088
1.22598776604469
1.2292946873597
1.23248324600856
1.23556149198535
1.23853734053642
1.24141855981824
1.24421277576525
1.24692748319689
1.24957006229284
1.25214780855286
1.25466795803496
1.25713774014091
1.2595644042961
1.26195531234289
1.26431794614393
1.2666600869391
1.2689897415519
1.2713155389403
1.27364638143676
1.27599242814732
1.27836389400314
1.28077355734112
1.28323365003584
1.28576256813101
1.28837410127981
1.29109663094588
1.29394251112768
1.29696260145111
1.30015405464559
1.30362384507443
1.30728335381641
1.31133214827756
1.3160436453269
1.31975339829562
1.32359290129882
1.32704741210867
1.33020523051559
1.33284673497
1.33476409568199
1.33547538481759
1.33491163421902
1.33274303455243
1.32889698531006
1.32318127178759
1.31634245515644
1.30801789294615
1.29759883583923
1.28436094704153
1.26669975392476
1.24167616443677
1.20338872503957
1.15033344606566
1.08066436803355
0.987484001890612
0.880491628066143
0.776813578349109
0.769103308985345
0.798401279725944
0.861570430191991
0.885778541280297
0.895466116471693
0.887898621738206
0.926708350026458
0.961490241856513
0.984800922187084
0.996468937539983
1.00544093874375
1.01075572054585
1.01513952201492
1.01828267869323
1.02079128386575
1.02279932666989
1.02440478118767
1.02571701987648
1.02686658537409
1.02809250608659
1.02945398335567
1.03100932722424
1.03279916659173
1.03480154684086
1.03681974989869
1.03876906420471
1.04067560302613
1.0424397987505
1.04402176447169
1.04548374348081
1.04561019955998
1.04682981324514
1.04980815874023
1.05378582769238
1.05864081347135
1.06410074827834
1.0700457295554
1.07635007633296
1.0829262773839
1.08969456431819
1.09658841413428
1.10354839695115
1.1105228077836
1.11746643410173
1.12434033666115
1.13111147056061
1.13775231304969
1.14424050690245
1.15055841560148
1.15669269604721
1.16263382639998
1.16837565525104
1.17391494833827
1.17925096830691
1.18438507486262
1.18932036630245
1.19406135053181
1.19861366404436
1.20298380805062
1.20717894737244
1.21120672371597
1.21507511952919
1.21879227876196
1.22236645881804
1.22580594487538
1.22911896094056
1.2323136652265
1.23539808830758
1.23838013090893
1.24126755087778
1.24406796786496
1.24678887415401
1.24943765091375
1.25202159815842
1.25454795973898
1.25702397654922
1.25945691272171
1.26185414934451
1.26422319063261
1.26657184688991
1.26890815621428
1.27124079074899
1.27357869579361
1.27593209197189
1.27831127551883
1.28072920086137
1.28319807869914
1.28573642314614
1.28835803784306
1.2910917325616
1.29394959173917
1.29698330387342
1.30018866540255
1.30367273747195
1.30734663232835
1.3113653157932
1.31602468540758
1.31967577649565
1.32346736424397
1.32686104670062
1.32995411602739
1.33251257997085
1.33433003329644
1.33493623788989
1.33426941100632
1.33200078038395
1.32806946416081
1.3222956814802
1.31538916172223
1.30695211332665
1.29637538783238
1.28290930784107
1.2649093503572
1.23943928482255
1.20080243552079
1.14764601583211
1.0782788566482
0.986513217819412
0.882874064974372
0.783541133553533
0.775769501638148
0.802244412187347
0.862672574829175
0.886378919264493
0.896680587585387
0.890051292007338
0.928168853128152
0.961887071989065
0.984696190282008
0.996352470063478
1.00520959681861
1.01058070496168
1.01500030517617
1.01818463890453
1.02072740287527
1.02276805563173
1.024402175554
1.02573584999174
1.02689131976464
1.02809761127158
1.0294223855382
1.0309264457571
1.03265438247092
1.03459174983284
1.0365602783995
1.03847321828989
1.04035290188367
1.04210467726004
1.04368716859181
1.0451590954448
1.04545829931027
1.04681599067115
1.04980382793846
1.05377300706485
1.05860742712068
1.06404352222539
1.06996415509725
1.07624467419123
1.08279825723319
1.08954544244638
1.09641990893709
1.10336235537253
1.11032115358573
1.11725112341089
1.12411331833784
1.13087465380086
1.13750753827879
1.14398952374401
1.15030286523786
1.15643409950282
1.1623735771067
1.16811501605525
1.17365505177321
1.17899281983351
1.18412955818506
1.18906825036025
1.1938132972583
1.19837023867645
1.20274548706945
1.20694613027122
1.21097973667815
1.21485422035118
1.21857767398986
1.22215831036806
1.22560437456811
1.22892405833953
1.2321254925838
1.23521668637318
1.23820552417673
1.24109975216361
1.24390698265664
1.24663470465588
1.24929029984304
1.25188107251713
1.25441427431196
1.25689715779958
1.25933700216274
1.26174120821167
1.26411730304442
1.26647312659224
1.26881674866202
1.27115688481588
1.27350252313875
1.27586394698565
1.2782515215013
1.28067836215579
1.28315668260634
1.28570510220248
1.28833737504379
1.29108268240979
1.29395274706329
1.29699987087598
1.30021835786375
1.30371421830779
1.30739905587955
1.31138701083779
1.31599499184258
1.31958538231745
1.32332253321906
1.32664601126034
1.32966399445866
1.3321285363778
1.33383562427317
1.33432640047995
1.33354670091066
1.33116940074232
1.32714554636219
1.32130572635666
1.314321631304
1.30576052289924
1.29501176665582
1.28129859021747
1.26293831521474
1.23700585713545
1.19801899172472
1.14477978646455
1.07576970546775
0.985517749215248
0.885311562696264
0.790319180828498
0.782554456249133
0.80632307498577
0.863977576768274
0.887101770685227
0.898009165826244
0.892286529650805
0.929726110638271
0.962418162850704
0.984651060075189
0.996360514643361
1.00501919967139
1.01040991630741
1.01486434822071
1.01809111802635
1.0206692035946
1.02274399656685
1.02440805360735
1.02576387217171
1.0269254698335
1.02811151923972
1.02939816377012
1.03084872050045
1.03251216521078
1.03438118086843
1.03629637608959
1.03816967599321
1.0400201484023
1.04175770863206
1.04334137243897
1.04482398971657
1.04529566711179
1.04678711496667
1.04978728020026
1.05375124063681
1.05856527626156
1.06397729194523
1.06987262510575
1.07612822519498
1.08265800413207
1.08938292280649
1.09623688233776
1.10316074532897
1.11010297055325
1.11701842104251
1.12386814667026
1.13061902542788
1.13724339641404
1.14371871883812
1.15002713587122
1.15615505971932
1.16209270817898
1.16783366295313
1.17337442307802
1.17871399081403
1.18385347607399
1.18879574123602
1.19354507612596
1.1981069148191
1.20248757512604
1.20669406190492
1.21073386527553
1.21461483297712
1.21834500150669
1.2219325337408
1.22538563161856
1.22871245194651
1.23192109599044
1.23501954938072
1.23801567866145
1.24091721695856
1.2437317681627
1.24646681712308
1.24912974537787
1.25172786103604
1.25426842319325
1.2567586958942
1.25920597324365
1.2616176756637
1.26400135297945
1.26636487443933
1.26871634099433
1.27106451055353
1.27341841216964
1.27578839071041
1.2781848685624
1.2806211019205
1.28310931470748
1.28566822261328
1.28831147522024
1.29106855667021
1.29395073790904
1.29701071335695
1.30024119654372
1.30374625142927
1.30743843478829
1.31139458021485
1.31595196021479
1.31948098047392
1.32315913591505
1.32640499340004
1.32933902628667
1.33170015242888
1.3332878167611
1.33365414585783
1.33275280846934
1.33025896174793
1.32613558216611
1.32022144578755
1.31314931387301
1.3044523665581
1.29351753807373
1.27953958728937
1.26080046126028
1.23439483826094
1.19506319843612
1.14176536253261
1.07317232366009
0.984533623064255
0.887824350776204
0.797131405649651
0.789399278935932
0.810571475674571
0.865458512275969
0.887941806147481
0.899434889060311
0.894577531528402
0.93132980647823
0.963021877452145
0.98466945083284
0.996443720062615
1.00489960644137
1.01025049177101
1.01473300210891
1.01800265997014
1.02061638499117
1.02272615879263
1.02442093181397
1.02579942707127
1.02696754994081
1.02813328603288
1.02938106759524
1.03077660404908
1.03237364743357
1.03417159710295
1.0360302298681
1.03786086079721
1.03967991234281
1.0414015245758
1.0429872986847
1.04448160860723
1.04512417765026
1.04674417784577
1.0497592859601
1.05372125567083
1.05851543121208
1.06390353592052
1.06977300404638
1.07600296768923
1.08250808076742
1.0892098532613
1.09604242691198
1.10294686579311
1.10987172601451
1.11677192649768
1.12360851886089
1.13034834822549
1.13696368625437
1.14343190024506
1.14973502097694
1.15585933467382
1.16179492405279
1.16753523153798
1.17307661626792
1.17841794331247
1.18356019035775
1.18850609450324
1.19325982985501
1.19782672061193
1.20221298590149
1.20642554246697
1.21047180074055
1.21435953802536
1.21809673032907
1.22169148739987
1.22515196530204
1.22848628344232
1.23170251123085
1.23480860892593
1.23781242341859
1.2407216733075
1.24354395277117
1.24628674141212
1.24895741968906
1.25156329871201
1.25411164432983
1.25660973139964
1.25906486830191
1.26148449434511
1.26387618123117
1.26624782636112
1.26860756031223
1.27096418104196
1.27332675532391
1.27570568598104
1.27811144074852
1.28055739462863
1.28305577634669
1.28562538653224
1.28827972228646
1.29104849085429
1.29394242254107
1.29701437857
1.30025540479731
1.30376691702302
1.30746261626395
1.31138566367926
1.3158933751611
1.31936098027266
1.32297683361814
1.32613911899778
1.32898146949069
1.33123069212616
1.3326907896627
1.3329244622253
1.331893323273
1.32927542787399
1.32504550745248
1.31904830410758
1.31187704439157
1.30303203205976
1.29189688933764
1.27763690788624
1.25850208142824
1.23161567055273
1.19194830707065
1.13862038176999
1.07050833990182
0.983582536054668
0.890419646063638
0.803961204046775
0.796265192118513
0.814945076368678
0.867091374820613
0.888895536252964
0.900944925344529
0.896912053700043
0.932926201545882
0.963681830575693
0.984777960156205
0.996537162931319
1.00487598961141
1.01011269279903
1.01460753087277
1.01791935187011
1.02056843155393
1.02271360129346
1.02443964197226
1.02584134844708
1.02701659904189
1.02816237562166
1.02937108763957
1.03071062022457
1.03223987350034
1.03396454110174
1.035763732729
1.03754885674493
1.03933441722764
1.04103843884957
1.04262743275788
1.04413454139066
1.04494537595998
1.04668814105717
1.04972062262675
1.05368374731676
1.0584588650123
1.06382356978144
1.06966694153489
1.07587087551321
1.0823507465654
1.08902874758998
1.09583927652363
1.10272363791682
1.10963049535875
1.11651483765591
1.12333772476967
1.13006597540663
1.13667179785485
1.14313247074735
1.14942991447172
1.15555029040094
1.16148354641354
1.16722298513285
1.17276482460501
1.17810779097166
1.18325272731103
1.18820224420145
1.19296039522302
1.19753239146766
1.20192435235508
1.20614310238663
1.21019596974493
1.21409065777303
1.21783507914603
1.22143728793524
1.22490539185222
1.22824747056941
1.23147155949061
1.23458559157514
1.23759739227164
1.24051466405029
1.24334498992711
1.24609584294294
1.2487746012746
1.25138857790762
1.25394504436968
1.25645128524249
1.258914622051
1.2613425116893
1.26374254624045
1.26612264929676
1.26849097866199
1.27085636889262
1.27322791994943
1.2756160868477
1.27803137042992
1.28048724093115
1.28299591866203
1.28557627185537
1.28824160138161
1.2910217502734
1.29392682134342
1.29700961525087
1.3002594456654
1.30377455184991
1.30746974906545
1.3113582306361
1.31581723760247
1.31922364736525
1.32277472867572
1.32584867048043
1.32859260302293
1.33072234886236
1.33204755010734
1.33214108747645
1.33097256365145
1.328223501898
1.32388003272509
1.31779063279228
1.31050864412293
1.30150294954365
1.29015304422625
1.27559415902935
1.25604833634043
1.22867645626369
1.18868619078688
1.13536140357463
1.06779896598896
0.982686695302272
0.893107805032615
0.810801252000967
0.803132076777427
0.819421601806311
0.868862826961127
0.889961702953814
0.902529911974171
0.899285900594673
0.934472306287451
0.964383521258946
0.984989048164558
0.996613699430416
1.00495785390183
1.01001150288359
1.01449030119152
1.01784152231897
1.02052508784901
1.02270570574314
1.02446338763155
1.02588885188649
1.02707199634969
1.02819848983674
1.02936833118043
1.03065129003134
1.03211176962336
1.03376133724426
1.03549849870647
1.03723544327519
1.03898557672171
1.04067046870421
1.04226388373075
1.04378491129574
1.04476063483876
1.04662002823244
1.04967211131297
1.05363938640564
1.05839646170747
1.06373855770958
1.06955588795197
1.07573368015443
1.08218798390038
1.08884181386972
1.09562983550317
1.10249363364607
1.10938198889536
1.11624997484311
1.12305866732734
1.12977486666568
1.13637072366074
1.14282343364016
1.14911481085119
1.15523089526821
1.16116150248312
1.16689979703138
1.17244185679161
1.17778626915587
1.18293374245698
1.18788676009986
1.1926492517748
1.19722631546707
1.20162396850434
1.20584894094028
1.20990847629196
1.21381020155659
1.2175619637545
1.22117175896726
1.22464764431923
1.22799765755973
1.23122979801902
1.23435196944453
1.23737197400832
1.24029749635351
1.24313610673682
1.24589527013082
1.24858236099321
1.25120469277847
1.2537695412936
1.25628419937543
1.25875600012978
1.26119241622057
1.26360105804079
1.26598987269784
1.26836704203743
1.27074143272571
1.27312217225769
1.27551976009892
1.277944717498
1.28041058505997
1.28292955624902
1.28552054280582
1.28819660847559
1.29098764014808
1.29390302986756
1.29699529467497
1.30025195973144
1.30376772704076
1.30745831123313
1.31131056024002
1.31572163336425
1.31906704787754
1.32255138305097
1.32553312585092
1.32817276254865
1.3301762841664
1.33135998875738
1.33130658278416
1.32999365066158
1.32710669051981
1.3226426984721
1.31645167804187
1.30904696266882
1.29986765979324
1.28828839419989
1.27341417273195
1.25344362174393
1.22558450614639
1.18528802367685
1.13200448909001
1.06506508981122
0.98186800739229
0.895900261740668
0.817648286953027
0.809987596151207
0.823988599277221
0.870765896176072
0.891140675238685
0.904183127735106
0.90169712784207
0.935940456451063
0.965111093478965
0.985291126591196
0.996688558952877
1.00512972773879
1.00996604179893
1.014385583358
1.01776993486405
1.02048639712267
1.02270213506632
1.02449163371719
1.02594138598668
1.02713331472874
1.02824145690668
1.02937295855192
1.03059912025356
1.03199018536053
1.0335631841501
1.03523599635306
1.0369222580632
1.03863517143013
1.04029950960158
1.04189857647122
1.04343460122552
1.04457124033372
1.04654090955863
1.04961462177662
1.05358885647635
1.05832907914853
1.06364959472162
1.06944119496587
1.07559298764477
1.0820216292161
1.08865109747995
1.09541633174733
1.10225923718435
1.10912872008993
1.11597995436185
1.12277404000623
1.12947776835255
1.13606324026506
1.14250757506561
1.14879248720368
1.15490390087522
1.16083150410795
1.16656832717043
1.17211031069627
1.17745590524948
1.18260568691039
1.18756201082912
1.19232868198606
1.19691068698144
1.20131393888395
1.20554507209118
1.2096112437982
1.21352000289576
1.21727912879149
1.22089655756269
1.22438029375556
1.22773833116453
1.2309786310684
1.23410906610935
1.23713741331219
1.24007133770677
1.24291839505876
1.24568604058726
1.24838164337339
1.25101251566962
1.25358593585625
1.25610920319531
1.25858966040189
1.26103479360693
1.26345222889988
1.26584993355111
1.26823610952738
1.27061965012766
1.27300970370424
1.27541680460028
1.27785148113519
1.2803273183557
1.28285646073185
1.28545783278783
1.28814422203914
1.29094546414996
1.29387016184914
1.29697033446229
1.30023166615733
1.30374511877549
1.30742693409561
1.31124109787007
1.31560469617363
1.31888912421459
1.32230498411225
1.32519136966314
1.32772156729268
1.32959287222468
1.33062914595267
1.33042260983992
1.32895877962931
1.32592756101435
1.32133611120038
1.31503381115838
1.30749407235754
1.29812801265723
1.28630471976858
1.27109926097464
1.25069186169641
1.22234665761509
1.18176453824279
1.12856529188187
1.06232703249427
0.981147189593699
0.898807561495641
0.824499843792066
0.816822501694936
0.828637441029402
0.872796625730894
0.892433798873324
0.905899860531557
0.904144085116539
0.937321408530465
0.965850068764815
0.985665966246794
0.99679569656728
1.00534838640018
1.00999652755394
1.01430043298716
1.01770598788524
1.02045271780848
1.02270280501065
1.02452404769573
1.02599855551737
1.0272002461195
1.02829118027935
1.02938516353166
1.03055461735757
1.03187593970264
1.03337122841204
1.03497763925835
1.03661089420751
1.03828494279369
1.03992741786339
1.04153333294759
1.0430853426334
1.04437841850549
1.04645189856919
1.04954907528063
1.05353287409312
1.05825758418806
1.06355775380561
1.06932417339304
1.07545034606062
1.08185344921367
1.08845856455874
1.09520090647518
1.10202274008
1.10887310512541
1.11570729173548
1.12248643303739
1.12917732201999
1.1357520187103
1.1421875755525
1.14846561552689
1.15457195473657
1.16049616044438
1.16623113449602
1.17177268505922
1.17711913019427
1.18227091728917
1.18723027181016
1.19200087828178
1.19658761231807
1.2009962822285
1.20523342623964
1.20930611430411
1.21322181597213
1.2169882415024
1.22061326529296
1.22410483756635
1.22747090629096
1.23071939280991
1.23385813679148
1.23689488821271
1.23983729062301
1.24269288343701
1.24546911026328
1.24817333293562
1.25081286057598
1.25339497213265
1.25592697110984
1.2584162074604
1.26087017800113
1.26329652137269
1.26570322099169
1.2680984943054
1.27049125479552
1.27289066401545
1.27530727987381
1.27775162364691
1.28023729780832
1.28277637307906
1.28538774978174
1.2880839011462
1.29089451417975
1.29382732919199
1.29693366632368
1.30019731616629
1.30370544307493
1.30737430916026
1.31114837212821
1.31546459219396
1.31868775603095
1.32203347970412
1.32482187153791
1.32723811694268
1.32897191604894
1.3298554539679
1.329490197133
1.32786950084657
1.32468803094049
1.31996223888553
1.31353882505778
1.30585156772881
1.2962854859432
1.28420354920254
1.26865162710522
1.247796984456
1.218969817793
1.17812661503813
1.12505980057485
1.0596052723625
0.9805440924383
0.901839154355914
0.831353622132985
0.823629387408018
0.833361572769445
0.874952625139651
0.893842909172155
0.907676951264161
0.906625002609789
0.938624107821194
0.966581384787086
0.986094188164665
0.996964496811142
1.00556265176777
1.01012010861228
1.01424563835474
1.01765206627445
1.02042478964881
1.02270789787234
1.02456048645333
1.0260600882965
1.02727256236604
1.02834760910113
1.02940515990982
1.03051829159868
1.03176984174267
1.03318659858258
1.03472482712199
1.03630294295854
1.03793663172384
1.03955604320309
1.04116990926238
1.04273876260631
1.04418336135277
1.04635416366144
1.04947645190691
1.05347220266013
1.05818287251312
1.06346411055326
1.06920612228733
1.07530727856217
1.08168517743226
1.08826614138518
1.09498565601087
1.10178638495696
1.10861750821474
1.11543444826945
1.12219838094169
1.1288761126825
1.13543967327072
1.141866059147
1.14813681205749
1.15423764968119
1.16015802731762
1.16589072616423
1.17143142844639
1.17677832675138
1.18193174248496
1.18689377375405
1.19166799006886
1.19625915645625
1.20067297749069
1.20491589546233
1.20899489284228
1.21291735915746
1.21669093442263
1.22032343002302
1.22382274036088
1.22719676587356
1.23045338618405
1.23360040614923
1.2366455467752
1.2395964281891
1.24246057147257
1.24524540660032
1.24795828607949
1.25060651371958
1.25319736673543
1.25573815033987
1.25823621895386
1.26069907682177
1.26313437145947
1.26555009774915
1.26795448326178
1.27035645423891
1.27276517682202
1.27519121950198
1.27764508152162
1.28014035457395
1.28268900908078
1.28530987843416
1.28801508415222
1.29083406544362
1.29377363298386
1.29688422206094
1.30014767383473
1.30364743075709
1.30729915284273
1.31103095672853
1.31529950845773
1.31846079009109
1.32173465630063
1.32442279543923
1.32672111110617
1.32831277392097
1.32903887598077
1.32850989311246
1.32672688200496
1.32338953718519
1.31852258710524
1.31196811738353
1.30412075641686
1.29434139602655
1.28198640458128
1.26607365471195
1.24476325386557
1.2154613475428
1.17438594973602
1.12150533828287
1.05692085222034
0.980078217554376
0.905003385790194
0.838207322893531
0.830402076401271
0.838155662199902
0.877232302840984
0.895369993950429
0.909512447959004
0.909137859408257
0.939870686274066
0.96727798967105
0.986553412889475
0.99720346020672
1.00574645883566
1.01034276221262
1.01423615719279
1.01761208068224
1.02040384923027
1.02271790245772
1.02460101049375
1.02612582808871
1.02735009653059
1.02841072035729
1.02943317070683
1.03049065553133
1.03167269872858
1.03301042132029
1.03447896653379
1.0360000161071
1.03759199928999
1.03918724799604
1.04081002319063
1.04239642259425
1.04398725253153
1.04624893984651
1.04939779815857
1.05340766472055
1.05810588374247
1.06336976067511
1.06908834846423
1.07516530446753
1.08151853663638
1.0880757376259
1.0947726557197
1.10155238990649
1.10836426629319
1.11516385590789
1.12191238745548
1.12857669374019
1.13512878632753