/*--------------------------------*- C++ -*----------------------------------*\
  =========                 |
  \\      /  F ield         | OpenFOAM: The Open Source CFD Toolbox
   \\    /   O peration     | Website:  https://openfoam.org
    \\  /    A nd           | Version:  7
     \\/     M anipulation  |
\*---------------------------------------------------------------------------*/
FoamFile
{
    version     2.0;
    format      ascii;
    class       surfaceScalarField;
    location    "10000";
    object      phi;
}
// * * * * * * * * * * * * * * * * * * * * * * * * * * * * * * * * * * * * * //

dimensions      [0 3 -1 0 0 0 0];

internalField   nonuniform List<scalar> 
30950
(
8.89508012961614e-05
-1.49318213811451e-05
8.74866042868563e-05
1.46419699809359e-06
3.25288905612945e-05
5.49577137535952e-05
-1.69458314701452e-05
4.94747219954824e-05
-3.42149551591755e-05
1.72691236802485e-05
-2.79225255175239e-05
-6.2924296325756e-06
-2.16923792467319e-05
-6.23014626990129e-06
-1.78385601323448e-05
-3.85381911399155e-06
-1.64718961777204e-05
-1.36666395682448e-06
-1.58238918244402e-05
-6.48004352065479e-07
-1.58555541350458e-05
3.16623106123598e-08
-1.63651564195885e-05
5.09602285219863e-07
-1.73127315427719e-05
9.47575122941622e-07
-1.89836740151218e-05
1.67094247376983e-06
-2.16324405411601e-05
2.6487665259203e-06
-2.53392149060287e-05
3.70677436448661e-06
-2.97015126717388e-05
4.36229776462338e-06
-3.46176356826524e-05
4.9161230106334e-06
-3.99091803357246e-05
5.29154465230004e-06
-4.51373951354242e-05
5.22821479988574e-06
-4.98182007837665e-05
4.68080564847284e-06
-5.42579086394988e-05
4.43970785600998e-06
-5.85326191432495e-05
4.27471050403992e-06
-6.20490353689425e-05
3.5164162260838e-06
-6.46176789243496e-05
2.56864355585085e-06
-6.61327282471849e-05
1.5150493233697e-06
-6.65517937988301e-05
4.19065551634988e-07
-8.0057454156019e-05
1.35056603579354e-05
-9.91969879734139e-05
1.91395338174166e-05
-0.00011198669895875
1.27897109861208e-05
-0.000119987092851768
8.00039389326092e-06
-0.000124971166339183
4.98407348756371e-06
-0.000127842670969522
2.87150463029581e-06
-0.00012905424885087
1.21157788115826e-06
-0.000128911729013055
-1.42519838372278e-07
-0.000127632944446719
-1.27878456579998e-06
-0.000125393328338777
-2.23961610767904e-06
-0.000122327960291897
-3.06536804576266e-06
-0.000118555660355133
-3.77229993689254e-06
-0.000114183313198507
-4.37234715611206e-06
-0.0001093087911376
-4.87452206087507e-06
-0.000104022232556361
-5.28655858059043e-06
-9.84063197828516e-05
-5.61591277430206e-06
-9.25365500648312e-05
-5.86976971794379e-06
-8.6481207659964e-05
-6.05534240499922e-06
-8.0301539595804e-05
-6.17966806309719e-06
-7.40518999995506e-05
-6.24963959651099e-06
-6.7780056275374e-05
-6.27184372277653e-06
-6.15275291306404e-05
-6.25252714536971e-06
-5.53300273595099e-05
-6.1975017696096e-06
-4.921789763035e-05
-6.11212972811938e-06
-4.32166228378116e-05
-6.00127478980977e-06
-3.73473081947515e-05
-5.86931463984822e-06
-3.16271808544361e-05
-5.72012733749263e-06
-2.60700499493052e-05
-5.55713090056623e-06
-2.06867791890771e-05
-5.38327075907e-06
-1.54856575287162e-05
-5.20112165161051e-06
-1.04728602314675e-05
-5.01279729670325e-06
-5.65272853562878e-06
-4.82013169125356e-06
-1.02791770458377e-06
-4.6248108369573e-06
3.39958544539523e-06
-4.42750314361504e-06
7.62872693782944e-06
-4.22914149693637e-06
1.16596750909405e-05
-4.03094815351239e-06
1.54929476989986e-05
-3.83327261692609e-06
1.91292511990587e-05
-3.63630350265049e-06
2.25694189912523e-05
-3.44016779767579e-06
2.58142438600131e-05
-3.24482487041816e-06
2.88643305834236e-05
-3.0500867249612e-06
3.17199528398948e-05
-2.85562225787855e-06
3.43808991059193e-05
-2.66094626632344e-06
3.68463365156149e-05
-2.46543741122536e-06
3.9114622674912e-05
-2.26828615934417e-06
4.1183168401875e-05
-2.06854572898369e-06
4.30481589128419e-05
-1.86499051108805e-06
4.4704429530466e-05
-1.6562706196505e-06
4.61449716659777e-05
-1.4405421352354e-06
4.73609058921095e-05
-1.21593422661576e-06
4.83404755370404e-05
-9.79569643399847e-07
4.90694160002839e-05
-7.28940463531341e-07
4.95288316652748e-05
-4.59415663908395e-07
4.96972397811388e-05
-1.68408117413824e-07
4.95464904147262e-05
1.50749366437114e-07
4.90463202345323e-05
5.00170178925499e-07
4.8146448789174e-05
8.99871445983425e-07
4.67945183493297e-05
1.35193043982119e-06
4.48954989109691e-05
1.89901943980696e-06
4.23693573198644e-05
2.52614159043557e-06
3.90351494416962e-05
3.3342078787208e-06
3.47758693738486e-05
4.25928006759102e-06
2.92085019685317e-05
5.56736740615245e-06
2.20950940331442e-05
7.11340793541854e-06
1.23568309823397e-05
9.73826305051549e-06
5.2778826415072e-06
7.07894833988497e-06
7.93974757752727e-06
-2.6618649354401e-06
1.10333647858482e-05
-3.0936172096391e-06
1.56640514752826e-05
-4.630686688498e-06
2.08979582354068e-05
-5.23390676015669e-06
2.68962951419451e-05
-5.99833690634555e-06
3.38696385731186e-05
-6.9733434313692e-06
4.20807023576014e-05
-8.21106378433985e-06
5.04431201453157e-05
-8.36241778832904e-06
5.89187715067835e-05
-8.47565136222438e-06
6.71203525798613e-05
-8.20158107480761e-06
7.46263556080666e-05
-7.50600302427014e-06
7.98229516909703e-05
-5.19659608323022e-06
8.37901249766058e-05
-3.96717328536145e-06
8.73161680829469e-05
-3.52604310753324e-06
9.08033749641459e-05
-3.48720688596732e-06
9.51935531576251e-05
-4.39017818696422e-06
0.000102476110759733
-7.28255760082133e-06
0.000115200150981787
-1.27240402202618e-05
0.000131455712689171
-1.6255561704233e-05
0.000152749387433344
-2.12936747442849e-05
0.000183230768679719
-3.04813812461469e-05
0.000218639490130617
-3.54087214482451e-05
0.000234801651063794
-1.61621609330425e-05
0.00018404226221478
5.07593888503574e-05
0.000118710784353041
6.53314778709315e-05
7.00709036128774e-05
4.86398807820176e-05
-3.94807632532085e-06
0.000280059423487368
-2.62129136371497e-05
0.000270668334639826
1.08552858376524e-05
0.000155560251716234
0.000170065796696288
6.4020120114351e-06
0.000198632961670801
-7.1887988802003e-05
9.55591244887333e-05
-7.05183135238949e-05
-7.6621049019641e-06
-5.70179247844412e-05
-1.97305350085158e-05
-4.86660109686596e-05
-1.22057329289771e-05
-4.56402594474192e-05
-4.39241548036248e-06
-4.48506384112093e-05
-1.43762538710676e-06
-4.57366032474192e-05
9.17627146966481e-07
-4.80036520601436e-05
2.77665109879936e-06
-5.16214958604262e-05
4.56541892295286e-06
-5.72841196422074e-05
7.33356625675113e-06
-6.54757069134267e-05
1.08403537968451e-05
-7.61378401699617e-05
1.43689076205812e-05
-8.84030686713533e-05
1.66275262650631e-05
-0.000101892562439431
1.840561677856e-05
-0.0001160750109982
1.94739932105832e-05
-0.000130083672400685
1.92368762026053e-05
-0.00014324911256634
1.78462458142786e-05
-0.000155908180992908
1.70987762827696e-05
-0.000167848516154902
1.6215045666154e-05
-0.000178048755414031
1.37166554854985e-05
-0.000186317603980474
1.08374921224146e-05
-0.00019432995351962
9.5273988628027e-06
-0.000205743739372432
1.18328514043036e-05
-0.000232924394069939
4.06863150558675e-05
-0.000262161564038577
4.83767037860562e-05
-0.00027947672951257
3.01048764604777e-05
-0.000288274153075965
1.67978174567674e-05
-0.000291942477926164
8.65239833782785e-06
-0.000291934530489967
2.86355719401007e-06
-0.000289121689296789
-1.6012633122404e-06
-0.000284067834207468
-5.19637492807118e-06
-0.000277175997190695
-8.17062158229268e-06
-0.000268747175113921
-1.06684381844188e-05
-0.000259028202270314
-1.27843408889041e-05
-0.000248229270289099
-1.45712319183111e-05
-0.000236535331185554
-1.60662862595023e-05
-0.000224111071293987
-1.72987819526045e-05
-0.000211104474507006
-1.82931553672814e-05
-0.000197648472519265
-1.90719147625488e-05
-0.000183862355397404
-1.96558868398154e-05
-0.000169852646421103
-2.00650513814416e-05
-0.000155713996812396
-2.03183176713429e-05
-0.00014152995193264
-2.0433684476513e-05
-0.000127373765021717
-2.04280306331521e-05
-0.000113309186830034
-2.03171053375434e-05
-9.93912770668638e-05
-2.01154115321126e-05
-8.56671922851948e-05
-1.98362145095171e-05
-7.21769755677061e-05
-1.94914915061565e-05
-5.89543081124225e-05
-1.90919820936081e-05
-4.60272381584995e-05
-1.864719729026e-05
-3.34188616222525e-05
-1.81655074348538e-05
-2.11479725972347e-05
-1.76541597837894e-05
-9.22953098723339e-06
-1.71195632573716e-05
2.32481570776662e-06
-1.65671439916724e-05
1.35052373289142e-05
-1.60005533101671e-05
2.43043825388923e-05
-1.5423956049996e-05
3.47174084392389e-05
-1.48405290407162e-05
4.47404621739006e-05
-1.42521952338765e-05
5.43706607632544e-05
-1.36611467429618e-05
6.36058538411015e-05
-1.30684656990807e-05
7.24442880086959e-05
-1.24747376712198e-05
8.08843250806644e-05
-1.18802048723742e-05
8.89241624602615e-05
-1.12846622506198e-05
9.65615635852083e-05
-1.06874878505334e-05
0.000103793582878948
-1.00876415521674e-05
0.000110616273352878
-9.48363674028682e-06
0.000117024384075768
-8.87354813484952e-06
0.000123011002179233
-8.25490426272844e-06
0.00012856718302973
-7.62472658045433e-06
0.000133681451388422
-6.97925886973845e-06
0.000138339315379747
-6.31413461193691e-06
0.00014252248426666
-5.62371102186056e-06
0.00014620821622676
-4.90166618692049e-06
0.000149367962441681
-4.13931585737233e-06
0.000151966527047781
-3.3275050698141e-06
0.000153959744665563
-2.4526332810542e-06
0.000155291978064256
-1.50064151693615e-06
0.000155897552444314
-4.5482501360726e-07
0.000155702175924303
6.95546698187381e-07
0.000154596465825493
2.00558154521153e-06
0.000152438975756387
3.50942050884148e-06
0.000149028137580619
5.30985761636058e-06
0.000144122591690454
7.431687480253e-06
0.000137349982743342
1.01068168261935e-05
0.000128263392584108
1.33458702266428e-05
0.000116088383316217
1.77423766746209e-05
9.96765035377865e-05
2.35252877138392e-05
7.7490530935387e-05
3.19242356528143e-05
6.03849733404979e-05
2.41845059342131e-05
6.07373306302749e-05
-3.01422222487123e-06
6.62977715990063e-05
-8.65405817911028e-06
7.51846067953216e-05
-1.35175218843441e-05
8.57136809027049e-05
-1.57629808676007e-05
9.79045683066081e-05
-1.81892243101313e-05
0.000112143159429734
-2.12119345546023e-05
0.000128718884610601
-2.47867889651955e-05
0.000146243797334088
-2.58873305122421e-05
0.000164324784280155
-2.655663830877e-05
0.000182353497542839
-2.62302943385992e-05
0.000199387295519174
-2.45398009981814e-05
0.000212960538226354
-1.8769838790626e-05
0.000223745020588504
-1.47516556473489e-05
0.000232836333333814
-1.26173558535943e-05
0.000241242339726489
-1.18932132820177e-05
0.000250696313411308
-1.38441518678589e-05
0.000264939345213819
-2.15255894029052e-05
0.000288800158933511
-3.65848539391726e-05
0.000321357628065933
-4.88130308348991e-05
0.000365144977730274
-6.50810244086339e-05
0.000425633970999617
-9.09703745155643e-05
0.000499598177730186
-0.000109372928177401
0.000553683801061861
-7.02477842644548e-05
0.000512825449608858
9.16177403037374e-05
0.000406608937690454
0.000171547989794724
0.000298281330303117
0.000156967488195787
2.5554922730495e-05
0.00044297324486707
-1.7535782719116e-05
0.000427251592898827
2.65769378015138e-05
0.000298475402698238
0.000298841986908083
7.79851461454693e-05
0.000419123218206034
-7.69844260324769e-05
0.000250528696662575
-0.00010070412495988
1.60575940322234e-05
-8.61120538583958e-05
-3.43226061094912e-05
-7.59029214475591e-05
-2.2414865339233e-05
-7.23331149849625e-05
-7.96222194502403e-06
-7.22271028980177e-05
-1.54363747332419e-06
-7.45494881539195e-05
3.2400124028427e-06
-7.90452466163009e-05
7.27240956163387e-06
-8.57253902183602e-05
1.12455625245405e-05
-9.5470247940306e-05
1.70784239796984e-05
-0.000108672743497622
2.40428493542516e-05
-0.000124843611086383
3.05397752094149e-05
-0.000142667854537649
3.44517697159509e-05
-0.000161338473144849
3.70762353857979e-05
-0.000179960318157586
3.80958382229599e-05
-0.000197542265209687
3.68188232547017e-05
-0.000213627375694432
3.39313562988728e-05
-0.000228575490586788
3.20468911751114e-05
-0.000242188884048825
2.98284391282025e-05
-0.000253862343988631
2.53901154253347e-05
-0.000263976882261501
2.09520303953844e-05
-0.00027468791135136
2.0238427952812e-05
-0.000290057314618743
2.72022546716619e-05
-0.000315581795119236
6.62107955565598e-05
-0.000338759146086458
7.15540547532615e-05
-0.000350740854152452
4.20865845266943e-05
-0.000355258005904962
2.13149692093816e-05
-0.000355094201834215
8.48859426716752e-06
-0.000351437861504691
-7.92783135472137e-07
-0.000345107700157887
-7.93142465903079e-06
-0.0003366124577052
-1.36916173808663e-05
-0.000326319085388634
-1.84639938986849e-05
-0.000314514591208532
-2.2472932364454e-05
-0.000301443272883299
-2.58556592138625e-05
-0.000287314287573778
-2.8700217227864e-05
-0.000272313101263467
-3.10674725696728e-05
-0.000256605361995086
-3.30065212209738e-05
-0.000240340256323381
-3.45582610388164e-05
-0.000223652017004576
-3.57601540815189e-05
-0.00020666124540387
-3.66466584404538e-05
-0.00018947578677501
-3.72505100103215e-05
-0.00017219159032954
-3.76025141165075e-05
-0.000154893485839355
-3.77317889667313e-05
-0.000137655981957037
-3.7665534515112e-05
-0.00012054406037805
-3.7429026916606e-05
-0.000103613977801203
-3.70454941085762e-05
-8.69140563267221e-05
-3.65361359837376e-05
-7.04854666663766e-05
-3.5920081165917e-05
-5.43629831660895e-05
-3.52144655932081e-05
-3.8575707723598e-05
-3.44344727321498e-05
-2.31477584177662e-05
-3.3593456739737e-05
-8.09884880612677e-06
-3.27030693951842e-05
6.55498023317999e-06
-3.17733922948576e-05
2.08007132078633e-05
-3.0812876966292e-05
3.46281922303392e-05
-2.98280323316643e-05
4.80294883507271e-05
-2.88252521715956e-05
6.09984004021327e-05
-2.78094410908468e-05
7.3530145346299e-05
-2.67839401789816e-05
8.5620882564579e-05
-2.57518839612936e-05
9.72674508731223e-05
-2.47150340094343e-05
0.000108467044754853
-2.36743315535032e-05
0.000119216897633029
-2.2630057751715e-05
0.000129513987912887
-2.1581752530857e-05
0.000139354745837768
-2.05282457757605e-05
0.000148734752334333
-1.94676480490731e-05
0.000157648421863384
-1.83973062694617e-05
0.000166088659445015
-1.7313785716873e-05
0.000174046476151538
-1.62127209692963e-05
0.000181510552574696
-1.50888030041501e-05
0.000188466719146421
-1.39354254415071e-05
0.000194897346378561
-1.27447618445451e-05
0.000200780575742661
-1.15069403859522e-05
0.000206089406929277
-1.02104973737031e-05
0.000210790477659311
-8.84038658702139e-06
0.000214842619468237
-7.37964687884824e-06
0.000218194900391173
-5.80491420371562e-06
0.000220784268556529
-4.09000968269109e-06
0.00022253326465038
-2.20382110751991e-06
0.000223346730200198
-1.17918851956427e-07
0.000223099780550478
2.25253119505276e-06
0.000221628514353595
4.98068670566677e-06
0.00021871342902174
8.22494294855809e-06
0.000214066171863565
1.20789446382567e-05
0.000207286577305821
1.68864113840838e-05
0.000197816014218981
2.28164333133948e-05
0.000184850174249541
3.07082166443411e-05
0.000167009270747985
4.13661912153366e-05
0.000142578340991516
5.6355165409127e-05
0.0001219028893529
4.48599575725111e-05
0.00011746090972911
1.42775739910151e-06
0.000121364871099596
-1.25580195499521e-05
0.000129855687070098
-2.20083378545676e-05
0.000141101192382285
-2.7008486179838e-05
0.000154724980742762
-3.1813012670536e-05
0.000171053073693873
-3.75400275057702e-05
0.000190270708109978
-4.40044233812875e-05
0.000211263252787014
-4.68798751894709e-05
0.000233375879954649
-4.86692654766081e-05
0.000255964659396764
-4.8819073781276e-05
0.000277934985236363
-4.65101268366395e-05
0.0002969899911435
-3.78248446978773e-05
0.000313095028399581
-3.08566929032511e-05
0.000327171436524436
-2.66937639786197e-05
0.000340334324988528
-2.50561017474578e-05
0.000354351233508585
-2.78610603854897e-05
0.000373148211849584
-4.03225677432366e-05
0.000401981647594471
-6.54182896833318e-05
0.000441325172499174
-8.81565557386946e-05
0.000493339604521575
-0.000117095456431143
0.000562141778201362
-0.000159772548195108
0.000645883678994148
-0.000193114828969612
0.000717954566783531
-0.000142318672053929
0.000711742031896373
9.78302751909893e-05
0.000625567706701176
0.000257722314993039
0.000510278702534272
0.000272256492378069
8.41832494711014e-05
0.000557492148146811
5.63351851781069e-06
0.000538423066594094
4.5646019351593e-05
0.000419911826646837
0.000417353226861253
0.00017238780663544
0.0006666472382066
-4.77647497562671e-05
0.000470681253053337
-0.000112699325014651
8.09921692950454e-05
-0.000105156203321724
-4.18657278022367e-05
-9.60292992655547e-05
-3.15417693947775e-05
-9.33347362588738e-05
-1.06567849533019e-05
-9.46848104685686e-05
-1.9356326311297e-07
-9.88175255892188e-05
7.37272752355756e-06
-0.000105515198526342
1.3970082499112e-05
-0.000114763935844614
2.049429984238e-05
-0.000127323292536656
2.96377806723375e-05
-0.000143245880389465
3.99654372071358e-05
-0.000161620532247331
4.8914427067476e-05
-0.000180992954237451
5.38241917059872e-05
-0.000200510462777871
5.65937439263946e-05
-0.000219388582176135
5.69739576210362e-05
-0.000236930338925664
5.43605800042733e-05
-0.000253012615065263
5.00136324383966e-05
-0.000268001707443601
4.70359835533533e-05
-0.000281713723885956
4.35404555704532e-05
-0.000293790733187328
3.7467124726638e-05
-0.000304741720410284
3.19030176183137e-05
-0.000316340069956798
3.1836777499322e-05
-0.000332013714614502
4.28758993292817e-05
-0.000353977099064661
8.81741800067844e-05
-0.000372148374947793
8.97253306363352e-05
-0.000380789297484263
5.07275070632323e-05
-0.000382998541359478
2.35242130845904e-05
-0.000380896402630329
6.38645553802023e-06
-0.000375471111351036
-6.2180744147995e-06
-0.000367450845203124
-1.59516908069627e-05
-0.000357295135170358
-2.38473274137229e-05
-0.000345359879758555
-3.03992493104524e-05
-0.000331923000122382
-3.59098120006639e-05
-0.000317224319234626
-4.05543401015011e-05
-0.000301471086331251
-4.44534501312958e-05
-0.000284848411394498
-4.76901475063788e-05
-0.000267522403649452
-5.03325289660803e-05
-0.000249643180331298
-5.2437484356899e-05
-0.000231346184132151
-5.40571502808237e-05
-0.000212753360937403
-5.52394816352032e-05
-0.00019397396919474
-5.60299017530574e-05
-0.000175105375334446
-5.64711079767008e-05
-0.000156233801387615
-5.66033629136406e-05
-0.000137435093697301
-5.64642422053062e-05
-0.000118775503882639
-5.60886167313992e-05
-0.000100312478191949
-5.55085197991579e-05
-8.20954444288376e-05
-5.47531697468767e-05
-6.41665913877173e-05
-5.38489342068839e-05
-4.65616264004531e-05
-5.2819430580295e-05
-2.93105002887386e-05
-5.16855988437275e-05
-1.24380879970088e-05
-5.04658690311879e-05
4.03516095402984e-06
-4.91763183462774e-05
2.00925065034438e-05
-4.78307378436055e-05
3.5720461910716e-05
-4.6440832373646e-05
5.09084003071009e-05
-4.50159707276788e-05
6.56478578640815e-05
-4.35647097291216e-05
7.99321735420659e-05
-4.20937567682625e-05
9.37561365091536e-05
-4.06079031464684e-05
0.000107115499372387
-3.911124682445e-05
0.000120006695551718
-3.76062301894596e-05
0.00013242651628366
-3.60941522855397e-05
0.000144371780639652
-3.45753221081079e-05
0.000155839033125252
-3.30490050164693e-05
0.000166824240132432
-3.15134527829888e-05
0.000177322478665891
-2.99658865825993e-05
0.000187327610266792
-2.84024378702962e-05
0.000196831925058042
-2.68181005082235e-05
0.000205825750347121
-2.5206546258289e-05
0.000214296995478861
-2.35600481360806e-05
0.000222230632087651
-2.18690620502476e-05
0.000229608052093374
-2.01221818504728e-05
0.000236406320169062
-1.83052084615507e-05
0.000242597192486873
-1.64013696915741e-05
0.000248145980691054
-1.43891747909907e-05
0.000253009945914689
-1.22436121025135e-05
0.000257136510924233
-9.93147921309698e-06
0.000260460885195296
-7.41438395392251e-06
0.000262901251371398
-4.64418728358248e-06
0.000264356575678118
-1.57324315887124e-06
0.000264700168413163
1.90893846006905e-06
0.000263765099453856
5.91575566495351e-06
0.000261334949162033
1.06550932405632e-05
0.000257118426001397
1.62954677987939e-05
0.000250729178340433
2.32756590451389e-05
0.000241609512661167
3.19360989926402e-05
0.000229017562490322
4.33001668152869e-05
0.000211702008242549
5.86817454631252e-05
0.000187984007298386
8.00731663532925e-05
0.000166567704027027
6.6276260843781e-05
0.000159119862227078
8.87559919917741e-06
0.000161036939604039
-1.44750969270342e-05
0.000168335657535322
-2.93070557856827e-05
0.000179165815699413
-3.78386443439567e-05
0.000192866330170632
-4.55135271417328e-05
0.000209631523452972
-5.43052207881569e-05
0.000229541104540969
-6.39140044692795e-05
0.000251648254588361
-6.89870252369346e-05
0.000275195463689721
-7.22164745780485e-05
0.000299520185692896
-7.31437957847618e-05
0.000323492314714562
-7.04822558578207e-05
0.000345054367033104
-5.93868970164591e-05
0.000363860707224296
-4.966303309435e-05
0.000380692462715611
-4.35255194699192e-05
0.000396640163464296
-4.1003802496889e-05
0.000413386076375914
-4.46069732961359e-05
0.00043464095506687
-6.15774464341366e-05
0.000465459121379152
-9.62364559955129e-05
0.000507081257955527
-0.000129778692315043
0.000561374489242817
-0.000171388687718609
0.000631394045127614
-0.000229792104079889
0.000715832856361765
-0.000277553640203911
0.0007922523668488
-0.000218738182541125
0.000806929812218245
8.31528298211761e-05
0.000747873454825138
0.000316778672387091
0.000648452358176038
0.000371677589034713
0.000151974158258505
0.000641546695555331
3.53135083116324e-05
0.000620253034993874
6.69396799114403e-05
0.000516946862649263
0.000520659399210185
0.000269770370129663
0.000913823730719003
4.32876233466047e-06
0.000736122860846762
-0.000107252105904171
0.0001925730375366
-0.000113898977262127
-3.52188564443821e-05
-0.000107760955640971
-3.76797910155049e-05
-0.000106600902311507
-1.18168382838588e-05
-0.000109656708007617
2.86224243316247e-06
-0.000115504469158196
1.32204886741382e-05
-0.000123938499128024
2.24041124689722e-05
-0.000134875016377456
3.14308170913046e-05
-0.000148889195074523
4.36519593696705e-05
-0.000165823424556501
5.68996666893735e-05
-0.000184674184628814
6.77651871402365e-05
-0.000204168081948613
7.33180890260232e-05
-0.000223606300296961
7.60319622750471e-05
-0.000242370492084712
7.57381494088349e-05
-0.000259938298163957
7.19283860836188e-05
-0.000276275206133659
6.63505404080134e-05
-0.000291642787474962
6.24035648945796e-05
-0.00030581938517188
5.77170532672521e-05
-0.00031853137265097
5.01791122056499e-05
-0.000330241189225714
4.36128341929809e-05
-0.00034229903856473
4.38946268383186e-05
-0.000357483743258928
5.80606040234286e-05
-0.00037665602583875
0.000107346462586631
-0.000391651370466823
0.000104720675264396
-0.000398344264318502
5.74204009149691e-05
-0.000399221504818643
2.44014535847662e-05
-0.000395975861398786
3.14081211821692e-06
-0.00038948108790782
-1.27128479057581e-05
-0.000380409816627275
-2.50229620874845e-05
-0.000369199594061882
-3.50575499791333e-05
-0.000356198565571924
-4.34002778003463e-05
-0.00034168240610819
-5.04259714643873e-05
-0.000325890504216334
-5.63462419932537e-05
-0.000309031265288363
-6.13126890592755e-05
-0.000291291670339765
-6.54297424549044e-05
-0.000272840064486139
-6.87841348197032e-05
-0.000253828930461798
-7.14486183811505e-05
-0.000234396103910885
-7.34899768317952e-05
-0.000214665864824883
-7.49697207211482e-05
-0.000194749710704916
-7.59460558730223e-05
-0.000174747118533125
-7.64737001483628e-05
-0.000154746279483988
-7.66042019627778e-05
-0.000134824856808227
-7.63856648809249e-05
-0.000115050765170073
-7.58627083695649e-05
-9.54829603781771e-05
-7.50763245908861e-05
-7.61722315872856e-05
-7.40638985376823e-05
-5.71619866465504e-05
-7.28591791474086e-05
-3.84890186278119e-05
-7.14923985988058e-05
-2.0184239213462e-05
-6.99903782578582e-05
-2.27336303866003e-06
-6.83767452057139e-05
1.52223580656268e-05
-6.66720394504512e-05
3.22855565895332e-05
-6.48939363670334e-05
4.89022384857954e-05
-6.30575142698475e-05
6.50612538859865e-05
-6.11749861275954e-05
8.07537074933957e-05
-5.9257163336835e-05
9.59725462292362e-05
-5.73125955037789e-05
0.000110712201549819
-5.53475584673132e-05
0.000124968112108688
-5.33671573833514e-05
0.000138736418002042
-5.13745360833111e-05
0.000152013630785638
-4.93713650693121e-05
0.000164796295306333
-4.73579866291548e-05
0.0001770806788616
-4.53333885718959e-05
0.000188862458957926
-4.32952328794516e-05
0.000200136403879229
-4.1239831504066e-05
0.000210896038947743
-3.91620729388637e-05
0.000221133281941589
-3.70553435022268e-05
0.000230838045154819
-3.49113094715628e-05
0.000239997770441845
-3.27197734233094e-05
0.000248596906036186
-3.04681976446309e-05
0.000256616251675804
-2.81415274902892e-05
0.000264032216968129
-2.57211737538932e-05
0.000270815818657438
-2.31849713809757e-05
0.000276931575714321
-2.05049318477937e-05
0.000282335861384143
-1.76478977723977e-05
0.00028697516932
-1.45707871489113e-05
0.000290783641600804
-1.12228562348655e-05
0.000293678227842759
-7.53877352557065e-06
0.000295553970966626
-3.44898628289499e-06
0.000296282441148104
1.18046827861445e-06
0.000295697661565048
6.50053524792948e-06
0.000293586661387856
1.27660934178198e-05
0.000289661912137647
2.02202170489144e-05
0.000283550838231132
2.93867329516896e-05
0.000274716205520332
4.0770731703403e-05
0.000262469689022245
5.55466833134276e-05
0.000245714875547473
7.54365589378971e-05
0.000222925308461236
0.000102862733439466
0.000201564272873912
8.76372964309882e-05
0.000192432982669657
1.8006889403464e-05
0.000192826323408397
-1.48684376658609e-05
0.000199096374976134
-3.55771073533187e-05
0.000209433944209488
-4.81762135773195e-05
0.000223013549037542
-5.90931319698024e-05
0.000239912269917718
-7.120394166838e-05
0.000260117364463968
-8.41190990155313e-05
0.000282753016099211
-9.16226768722458e-05
0.000307016128697407
-9.64795871762922e-05
0.000332211764134118
-9.83394312216695e-05
0.000357180232814561
-9.54507245379218e-05
0.000380019937176611
-8.22266013784243e-05
0.000400273679145815
-6.99167750633941e-05
0.000418640578584129
-6.18924189080148e-05
0.000436182174499317
-5.85453984123406e-05
0.000454546922065245
-6.29717208612217e-05
0.000477290680120212
-8.43212044889122e-05
0.000509229561792636
-0.000128175337667799
0.000551978225226109
-0.000172527355748633
0.000607305146671875
-0.000226715609164382
0.0006776152841313
-0.00030010224153902
0.000761465846982638
-0.000361404203055536
0.000837821574543831
-0.000295093910102434
0.000861184386934277
5.97900174306102e-05
0.000819235913335994
0.000358727145986238
0.000736934335515641
0.000453979166860567
0.00021768180842208
0.000708203149678574
6.66806680258427e-05
0.000685767201050859
8.93756285379117e-05
0.000597089175839064
0.000609337424424468
0.000362930538172672
0.00114798236838014
6.86406927604918e-05
0.001030412706259
-8.92203642563009e-05
0.000350434094555207
-0.000115888850972353
-8.55036972853675e-06
-0.000113823402831458
-3.97452391559729e-05
-0.000114137910726093
-1.15023303899995e-05
-0.000118667087779903
7.39141948701325e-06
-0.000125933195503091
2.04865963973665e-05
-0.000135701708784152
3.21726257500474e-05
-0.0001478227445151
4.35518528218186e-05
-0.000162737746034193
5.85669608888496e-05
-0.000180219877302198
7.43817979575223e-05
-0.000199324332728778
8.68696425671919e-05
-0.000218977073027045
9.29708293245613e-05
-0.000238590022619972
9.56449118683001e-05
-0.000257629795635587
9.47779224245274e-05
-0.000275636713318684
8.99353037667752e-05
-0.000292562911895975
8.32767389852278e-05
-0.000308567476150057
7.840812914857e-05
-0.000323399419088836
7.25489962058942e-05
-0.000336812576927634
6.35922700443126e-05
-0.000349184830699007
5.5985087964255e-05
-0.000361526925557492
5.6236721696726e-05
-0.000376083808114671
7.26174865805125e-05
-0.000393083496657932
0.000124346151129864
-0.000405806346822288
0.000117443525428709
-0.000411124409790145
6.27384638828341e-05
-0.000411046096601803
2.43231403964178e-05
-0.000406959174405033
-9.46110078541781e-07
-0.000399659831115331
-2.00121911954865e-05
-0.000389779023185493
-3.49037700173242e-05
-0.000377740039662265
-4.70965335023994e-05
-0.000363886724689499
-5.7253592773092e-05
-0.000348495164624578
-6.58175315293398e-05
-0.000331806205440893
-7.30352011768987e-05
-0.000314030805831845
-7.90880886683705e-05
-0.000295358842199668
-8.41017060870534e-05
-0.000275961705649704
-8.81812713697184e-05
-0.000255994894107921
-9.14154299229017e-05
-0.000235599165726508
-9.38857052133013e-05
-0.000214901571788885
-9.56673146587602e-05
-0.000194016208882882
-9.68314187790818e-05
-0.000173044962466943
-9.74449465642452e-05
-0.0001520782372641
-9.75709271656855e-05
-0.000131195713435568
-9.72681887094045e-05
-0.00011046713031829
-9.65912914869147e-05
-8.99530827358063e-05
-9.55903721733273e-05
-6.97058228985032e-05
-9.43111583750361e-05
-4.97700562170081e-05
-9.27949458288651e-05
-3.01837199567352e-05
-9.10787348590621e-05
-1.09787224401709e-05
-8.91953757743863e-05
7.81831526274795e-06
-8.71737829085849e-05
2.61853807560947e-05
-8.50391049438292e-05
4.41044867367347e-05
-8.28130423474871e-05
6.15610768883607e-05
-8.05141044215219e-05
7.85435084429625e-05
-7.81574176820916e-05
9.50424654782238e-05
-7.57561203722616e-05
0.000111050528479639
-7.33206585050114e-05
0.000126561801589863
-7.08588315776582e-05
0.000141571440758078
-6.83767965515126e-05
0.000156075329663814
-6.5878424989237e-05
0.000170069740315126
-6.33657757206352e-05
0.000183550987807209
-6.08392341213383e-05
0.000196515110912849
-5.82975116775346e-05
0.000208957551523085
-5.57376734896765e-05
0.000220872827400722
-5.31551073817264e-05
0.000232254190837148
-5.05434363752474e-05
0.00024309325640408
-4.78944090691902e-05
0.000253379595963468
-4.51976490308983e-05
0.000263100266025369
-4.24404434852706e-05
0.000272239278873505
-3.96072104927425e-05
0.000280776939917834
-3.66791885346999e-05
0.000288689104503015
-3.3633338339026e-05
0.000295946167159843
-3.04420340378303e-05
0.000302511965691153
-2.70707303790182e-05
0.000308342126265391
-2.34780583466559e-05
0.000313382345523791
-1.96110064072478e-05
0.000317565817882565
-1.54063285937285e-05
0.000320808839560244
-1.07817952032597e-05
0.000323004709219033
-5.64485594178353e-06
0.000324023492243981
1.61685253676227e-07
0.000323699644115752
6.8243833761059e-06
0.000321823127696129
1.46426098374868e-05
0.000318111570107678