/*--------------------------------*- C++ -*----------------------------------*\
  =========                 |
  \\      /  F ield         | OpenFOAM: The Open Source CFD Toolbox
   \\    /   O peration     | Website:  https://openfoam.org
    \\  /    A nd           | Version:  7
     \\/     M anipulation  |
\*---------------------------------------------------------------------------*/
FoamFile
{
    version     2.0;
    format      ascii;
    class       volVectorField;
    location    "10000";
    object      U;
}
// * * * * * * * * * * * * * * * * * * * * * * * * * * * * * * * * * * * * * //

dimensions      [0 1 -1 0 0 0 0];

internalField   nonuniform List<vector> 
15600
(
(0.102795628595671 -0.000387012790029474 -1.15793072914565e-21)
(0.124826098333946 -0.00345390054288038 -2.38656804509804e-18)
(0.0873859647423473 -0.0115170581052284 0)
(0.00482111209013159 -0.00425249572249138 -2.03301809047028e-17)
(-0.0433645739412132 0.0172083625446248 -2.39935117882703e-21)
(-0.0394065947908842 0.0223448304754999 -1.47121267052773e-20)
(-0.0267017470152275 0.0180916498358533 -4.17598208074938e-17)
(-0.0207944112262093 0.0155602954331853 4.30273817815193e-17)
(-0.0170171481556673 0.0135474461832055 -1.25959280371882e-14)
(-0.0155850046800801 0.0126366386985953 -1.32189774886836e-14)
(-0.0145031080908675 0.0116832168594332 1.22194294974075e-20)
(-0.0142167073754349 0.0112693558594752 -2.56753016725158e-20)
(-0.0142197414154603 0.0111362816331566 2.70107721366833e-20)
(-0.014710282465146 0.0114207315688155 -5.77053084517858e-17)
(-0.0158663614682701 0.0122329481594334 -6.0043019711706e-17)
(-0.0177935970423509 0.0136192110918124 -6.06029026133321e-20)
(-0.0202318685905644 0.015320273844727 -6.3829047267443e-17)
(-0.0229433099098921 0.0169538740703154 1.32021448242586e-16)
(-0.0259090113732516 0.018358771885977 -6.81838337029368e-17)
(-0.0289089746201977 0.0192608250481825 -7.10715736983454e-17)
(-0.0315944866916147 0.0193434249056299 7.37726223259412e-17)
(-0.0340087435689133 0.018553482188966 -7.65685772711676e-17)
(-0.0364315504170904 0.0171520464972982 -2.98462068475463e-22)
(-0.0386258924762919 0.0151519055672648 8.12593361829664e-17)
(-0.0403763613509574 0.0125261092525686 0)
(-0.0415994411938412 0.00934461582124513 0)
(-0.0411832646420265 0.00555423585753888 -6.17992213869794e-15)
(-0.0451456089118363 0.0020069394457028 -6.18452783270062e-15)
(-0.0576262417407444 0.000467969826045336 1.91806898756995e-23)
(-0.0684180516788296 0.000473358859263782 5.57833636105105e-31)
(-0.074564721184319 0.000466426202884518 0)
(-0.0786071328737009 0.000458545669164037 -6.439977813665e-15)
(-0.0810201706107737 0.000452931766141532 -6.50255434098445e-15)
(-0.0822858511456459 0.000442519100900057 0)
(-0.0825931328867698 0.000428535628063615 0)
(-0.0821131451583181 0.000411346142083377 0)
(-0.0809695395939316 0.000392368603367591 0)
(-0.0792584600777586 0.000371534973653855 -7.58758854227093e-20)
(-0.0770590949552494 0.000349463414685017 6.31563188347439e-15)
(-0.0744434838162924 0.000326655584000642 6.43999823698346e-15)
(-0.0714766374150195 0.000303577914369182 -7.74604790578901e-20)
(-0.0682185968010901 0.000280626299762995 -7.88052593928087e-20)
(-0.0647245373781054 0.000258121883315102 7.92633866975428e-20)
(-0.0610449918855066 0.000236319782380885 -8.07286579142057e-20)
(-0.0572259016776953 0.000215408519359857 8.13158164120085e-20)
(-0.0533086359312344 0.000195522601036506 0)
(-0.0493301123871106 0.000176746923834897 -7.22887537843088e-15)
(-0.0453229231107671 0.000159127258988927 -7.37663173363372e-15)
(-0.0413155554073168 0.000142676130091381 -8.61260380857692e-20)
(-0.037332633713903 0.00012738084989848 4.35668297498407e-20)
(-0.0333952093938764 0.000113208480529102 -4.43782951908691e-20)
(-0.0295210624619703 0.000100111810768102 8.97944064445533e-20)
(-0.0257250201769121 8.80329121449084e-05 -7.56929512397212e-15)
(-0.022019273516995 7.69073940022211e-05 -7.69902475357292e-15)
(-0.0184136810292629 6.66661957033213e-05 -2.33350295129362e-20)
(-0.0149160781806235 5.72434304578589e-05 0)
(-0.0115325282644112 4.85559255126148e-05 1.39660502587295e-30)
(-0.00826761734932507 4.03333788926065e-05 -1.21678203870401e-20)
(-0.00512465857936123 3.18963464637737e-05 1.84375811754922e-20)
(-0.00210594040634544 2.3471098535532e-05 -6.2137944151112e-21)
(0.000787053137354486 1.59603641002246e-05 0)
(0.00355363159365513 9.36350518816173e-06 1.2535835560427e-20)
(0.00619358894725502 3.31478347760631e-06 -1.24783380971126e-20)
(0.00870701898289118 -2.32075230141723e-06 1.45217037234087e-30)
(0.0110943136170873 -7.59735668262587e-06 0)
(0.0133559841445043 -1.25700760487832e-05 -2.49110778013686e-20)
(0.0154925724980658 -1.72899920632153e-05 2.48292898111335e-20)
(0.0175045443690427 -2.18053060500704e-05 0)
(0.0193922030164358 -2.61618433954489e-05 0)
(0.0211555871477866 -3.04032065882167e-05 0)
(0.0227943905902858 -3.4572280524645e-05 0)
(0.0243078407977434 -3.87102728658514e-05 0)
(0.0256946267434409 -4.28601017442802e-05 8.30177880027358e-15)
(0.0269527162693354 -4.70627047488697e-05 1.65652637982971e-14)
(0.0280793140506927 -5.13653064261682e-05 8.26171351191346e-15)
(0.0290705240205768 -5.58101729459441e-05 -1.99350785758003e-19)
(0.0299214243253603 -6.04562333421845e-05 9.97550305081506e-20)
(0.0306253375471289 -6.53465852311486e-05 -1.001457404201e-19)
(0.0311743214490324 -7.05674343328479e-05 1.00211302998496e-19)
(0.0315573577121115 -7.61577850753512e-05 8.42001960812569e-15)
(0.0317626115185287 -8.22809765686913e-05 8.36558777699581e-15)
(0.0317722468992793 -8.89503728680872e-05 -1.01225482454979e-19)
(0.0315711463943825 -9.64385549931591e-05 1.018311699369e-19)
(0.0311308402026259 -0.000104599601546874 -2.04433784311405e-19)
(0.03042476979362 -0.000114095457866016 1.02675435787744e-19)
(0.0293961289175932 -0.000124300103557618 -2.07079035992968e-19)
(0.0280075587618157 -0.000136956809298989 4.16826916264488e-19)
(0.0261476406375045 -0.000150071449761642 -2.10012871491104e-19)
(0.0237766226703287 -0.000168359858315141 -2.12709943705821e-19)
(0.020643672909226 -0.000185275321014791 4.30255507985894e-19)
(0.0167749202235136 -0.000213483047567339 0)
(0.0113229799138844 -0.000226913599623311 -2.71872920759195e-23)
(0.00436632547543461 -4.06028677051864e-06 0)
(0.00341306254663453 0.000425201453864142 2.29450687024875e-19)
(0.00591445579516692 0.0015755673620683 -5.80977496236326e-17)
(0.00824118607538266 0.00297989143928229 -6.12673862934856e-22)
(0.011510453365021 0.00507813173171789 -1.07556912825423e-16)
(0.0152103374479583 0.00780836092016104 -1.03620306117554e-16)
(0.0195634704380698 0.0113370067716839 9.84642489303607e-17)
(0.025040789793972 0.0158749473299087 -9.33799012849609e-17)
(0.0312723792493086 0.0211204238990855 8.86385074470048e-17)
(0.037983841055698 0.0267767910441899 8.42863298343706e-17)
(0.0450643305668727 0.0326364228805304 0)
(0.0525209762240445 0.0385215499215824 0)
(0.0592460808094487 0.0436573771864548 -7.36857575959902e-17)
(0.0648349128245917 0.0481176392842602 -7.06638266437218e-17)
(0.070203337785167 0.0526633706034757 -6.75444615697277e-17)
(0.0758145708262718 0.0576689633572126 -6.42571923921925e-17)
(0.0822446512943723 0.063578850320377 -6.07558772438574e-17)
(0.0906883583341118 0.0712799093431607 5.68485863756011e-17)
(0.104471551265984 0.0825024055716504 5.25697028687622e-17)
(0.124594472810519 0.0960995591501659 -4.84149553011122e-17)
(0.150348698368344 0.109943912818195 4.42889404985446e-17)
(0.186893180779706 0.124143845059244 4.00987178180997e-17)
(0.235318849455228 0.133149100412298 -3.57264967965711e-17)
(0.289625025095368 0.1234161825265 0)
(0.278920358401153 0.0721570116146231 1.42845666482271e-17)
(0.196036459532313 0.0227320741609528 0)
(0.108816252044448 0.0020662118660502 -2.07002116367729e-18)
(0.0821116279359502 -0.000599858583183116 0)
(0.33020775167984 -0.00164935120386708 0)
(0.360845482389414 -0.00856548722944399 -7.08564024565418e-22)
(0.294191730079713 -0.0304176382595041 -4.84292799075201e-21)
(0.0976761827920841 -0.0213144157845557 1.69461784102811e-14)
(-0.0743017596110285 0.0378600957555794 1.89724651218958e-14)
(-0.0926173101406615 0.0575698975796512 -5.88109187235644e-17)
(-0.0670451489927923 0.0485288289932019 1.82269262688371e-23)
(-0.0536697786599345 0.0426887145915884 -6.20599648617237e-17)
(-0.0452071731263096 0.0379370440938123 1.84305961915927e-14)
(-0.0420254457864226 0.0357477685168853 1.92203848622059e-14)
(-0.0399945809188032 0.0334745736046086 -3.5382431451891e-20)
(-0.0398258477995737 0.0325742990141377 3.71756809584794e-20)
(-0.0405352549198045 0.0325113278196377 -3.85839548723241e-20)
(-0.0425697183897428 0.0336562673262218 -8.15461905417174e-17)
(-0.0463007262855444 0.0362630023680365 1.6624459080706e-16)
(-0.0517662172649241 0.040329918300214 -8.17777629909197e-20)
(-0.0583141253230068 0.0451090651225033 8.4045454252918e-17)
(-0.065447802468295 0.0495689132643022 -8.4065788532566e-17)
(-0.0730223058387733 0.0531875493044132 1.62736119195118e-19)
(-0.0805589395889281 0.0552262780055565 -1.61816250299107e-19)
(-0.0875708567474869 0.0549963006713079 -8.18430575969687e-17)
(-0.0942434140769017 0.0524286981611446 8.09423713158117e-17)
(-0.100833563197293 0.0480779313590174 7.9664556195444e-17)
(-0.106834511662988 0.0420386504965549 -1.520653899663e-19)
(-0.111896759266779 0.0343682880731545 3.81572212281148e-17)
(-0.116153077401481 0.0253706905294574 -3.74451533937425e-17)
(-0.120665987506486 0.0154662864278985 5.32119586606835e-15)
(-0.133112423670931 0.00638767899240684 4.92687425901694e-15)
(-0.153878054411341 0.0021574638335276 -2.96382278694398e-23)
(-0.168585683338428 0.00140914113945249 -4.17524122002461e-31)
(-0.175812471114227 0.00083400559537837 0)
(-0.179478129943418 0.000481623505298841 4.70686876815152e-15)
(-0.18044669888363 0.000232862129259853 4.55659473850085e-15)
(-0.179504824454941 3.95782202266029e-05 2.09097194416202e-19)
(-0.177017393878998 -0.000116695791308098 -1.03006066101743e-19)
(-0.173295080909009 -0.000246560584049755 -1.02849383007977e-19)
(-0.168537418658807 -0.000355993610580665 1.01837391894265e-19)
(-0.162914001014433 -0.0004492064525347 7.43168159253514e-31)
(-0.156562364610062 -0.000528320161251871 -4.28882496648617e-15)
(-0.149604218729601 -0.000594853678428641 -4.26606248849195e-15)
(-0.142146652339881 -0.000649986118060751 0)
(-0.134285968892564 -0.000694714082980928 5.25747375120404e-20)
(-0.126108648621177 -0.000729971859029695 3.15479991091027e-22)
(-0.117692409625274 -0.000756637665851035 -5.35888001181808e-20)
(-0.109106843104409 -0.000775568706767048 -5.46976839393452e-20)
(-0.100413933947191 -0.000787585661740459 1.10856155896574e-19)
(-0.091668587065202 -0.000793478300572286 4.89801174308039e-15)
(-0.082919091184557 -0.000793992521606757 4.95476336044493e-15)
(-0.0742076293205368 -0.000789828673727557 5.83878164690365e-20)
(-0.06557076384764 -0.000781634232367253 0)
(-0.0570399372331151 -0.000770003478499274 -3.05350117004841e-20)
(-0.0486419566875358 -0.00075547402727324 3.10491580580853e-20)
(-0.0403994735067616 -0.000738528837843522 5.30566878052688e-15)
(-0.0323314423773574 -0.000719595877126384 5.40380222321959e-15)
(-0.0244535492218127 -0.00069905181069878 -1.66451718051627e-20)
(-0.0167786420051857 -0.000677223922737617 -6.02807402727342e-23)
(-0.00931708777637006 -0.000654550452099591 -5.89775640139596e-23)
(-0.00207721116791536 -0.000631358047916471 1.77142577041429e-20)
(0.00493455921458674 -0.000607371655739817 -4.47800399062144e-21)
(0.0117133752618282 -0.000582724572779803 4.45649967179397e-21)
(0.0182554111751695 -0.000557694099853503 -4.46397457494337e-21)
(0.024557857940525 -0.000532329645540746 4.44823344949867e-21)
(0.0306187103649162 -0.000506907017693568 1.78362011085435e-20)
(0.0364364377321137 -0.00048152403864078 -1.77937986936988e-20)
(0.0420098931426978 -0.000456209799593647 0)
(0.0473380692621878 -0.000430980533769668 0)
(0.0524199482457262 -0.000405833019146987 0)
(0.0572543234897287 -0.00038074632815522 0)
(0.0618396414670674 -0.000355682186147031 0)
(0.06617381623994 -0.000330583895442589 0)
(0.070254064877439 -0.000305377613714821 0)
(0.0740766774259169 -0.000279967319289645 7.25819036445327e-20)
(0.0776368404501507 -0.00025423854245247 -6.04461799247923e-15)
(0.0809282962692543 -0.000228044955815783 -1.21858468215507e-14)
(0.0839431682582187 -0.000201220490852907 -6.14790873475453e-15)
(0.0866713654497685 -0.000173545074918335 -1.4797253871997e-19)
(0.0891004961379835 -0.000144782956840701 -1.36638834982693e-22)
(0.0912146669524421 -0.000114593705208254 7.49550491384919e-20)
(0.0929948249671163 -8.26472403344335e-05 7.57087299525235e-20)
(0.0944159703866651 -4.84074895967232e-05 -6.3252569736436e-15)
(0.0954495758316619 -1.14153175706542e-05 -6.45644730830693e-15)
(0.0960536782151975 2.89048749489765e-05 7.79354151216544e-20)
(0.0961915700468377 7.28097041383845e-05 0)
(0.0958041573882446 0.000122730052432256 1.59967228932357e-19)
(0.0948228260289479 0.000179563321981786 -1.61904821519053e-19)
(0.0931277924693311 0.00024775293002361 -1.64859053333549e-19)
(0.0906123762760052 0.000326931977965395 1.67617727157737e-19)
(0.0870457424292984 0.000427448740220181 0)
(0.0822665320396558 0.000545800333335839 0)
(0.0757610933689194 0.000709153020801192 1.82092821513087e-19)
(0.067319037340389 0.000915277186143919 -5.13344415148862e-22)
(0.0552593291691376 0.00122790699699089 1.99952949912336e-19)
(0.0398604870557268 0.00234020341590079 0)
(0.0352182150525677 0.00424410072406076 -1.65628134362603e-22)
(0.0384088335268313 0.00796283588681467 0)
(0.042996517697655 0.0125194206885422 5.14048416917431e-17)
(0.0493277734473575 0.0185228183975539 -9.83400721913534e-17)
(0.0568266223453353 0.0259516016083189 -1.83683951554286e-19)
(0.0657210698310707 0.0351260293808401 1.74579991859066e-19)
(0.0768163118126299 0.0464355009260671 1.6594657593356e-19)
(0.0896934365357384 0.0593663599244031 -8.10785396758207e-17)
(0.103967790428921 0.0733211443231173 -1.61838186192619e-19)
(0.119394562358015 0.0878541171382063 -7.38569218278083e-17)
(0.135984804264769 0.102579994381853 0)
(0.152084106168257 0.116142342388203 0)
(0.166596613552601 0.128543192386682 6.7257258829361e-17)
(0.180381216845616 0.141131005668177 6.53741102559627e-17)
(0.194330755185998 0.15479596665586 6.3341211941736e-17)
(0.20958001072525 0.170532050316253 3.91612157300834e-20)
(0.228237474781342 0.190145369699867 -5.77477565332035e-17)
(0.256161033129335 0.216943572545238 -1.07204178722152e-16)
(0.296958480827291 0.248757048838474 0)
(0.350897023000679 0.280626315498451 0)
(0.425312402313962 0.310578351552465 -3.85560942177054e-17)
(0.522800050202681 0.326448395160253 -3.28275577360861e-17)
(0.638575336571277 0.303288756709855 2.84122154935898e-17)
(0.677758063751747 0.199543876918924 -1.25200749888365e-17)
(0.583666277429986 0.0823723440583515 0)
(0.419228792698057 0.0161169277171454 0)
(0.328300083339126 -0.000146376801818021 0)
(0.519736106999337 -0.00159508034638424 0)
(0.534472858628628 -0.0117236566006746 1.50234320082212e-18)
(0.47323155106221 -0.0437275413204493 0)
(0.238931196640317 -0.0469998426272803 -1.10245606207173e-14)
(-0.0480631225710533 0.0333425085489499 -1.47641999996992e-14)
(-0.122411478591042 0.0764290750074858 5.37999803858987e-17)
(-0.0964655772634015 0.0686917247720088 0)
(-0.0795964561396696 0.0625080200924359 6.89589702969389e-21)
(-0.0687531728993238 0.0572294569634213 -6.03459252221499e-17)
(-0.0647522912740257 0.0547889921209814 6.38799387690406e-17)
(-0.0625717358994057 0.052204676851152 8.7629536316656e-23)
(-0.0629408143298012 0.0514199720125531 -3.3848165906912e-20)
(-0.0646980224834618 0.0519317556927302 0)
(-0.0683979524883947 0.054249293937732 7.14589857571941e-17)
(-0.0744032377349397 0.0585888637390833 -8.98319832135033e-22)
(-0.0824670956650896 0.0646809252578394 -6.71648714818907e-20)
(-0.0915683298084629 0.0713186064646095 6.45201200840831e-20)
(-0.100996011200145 0.076983796850169 0)
(-0.110401979157095 0.0808631349244669 0)
(-0.119214374934119 0.0820929691924611 0)
(-0.127091878091497 0.0801025840385191 0)
(-0.134405793705393 0.075025854168668 -5.05289397712948e-17)
(-0.14138239492222 0.0676524979504447 -4.75373433162183e-17)
(-0.147642040545571 0.0583178966125958 8.82524819346799e-20)
(-0.153147955604209 0.0472774836202565 -8.83068791801988e-20)
(-0.1584467723904 0.0350102097537199 4.11470091001276e-17)
(-0.165105162241145 0.0219809158493733 1.9529466013285e-17)
(-0.178611718399093 0.0098187759789498 7.05276086948939e-20)
(-0.195907247017696 0.00386284952317023 1.56595993836999e-23)
(-0.20631748190238 0.00233136431254149 0)
(-0.210621707054712 0.00123178521085609 0)
(-0.211812144739779 0.000557728173891605 0)
(-0.210549416195034 7.32896189747283e-05 0)
(-0.207525040067874 -0.000299564969507798 0)
(-0.203071541627761 -0.000599856157583946 0)
(-0.197454114716342 -0.000848334354146894 0)
(-0.190853367838501 -0.00105704887332645 0)
(-0.18343041492571 -0.00123342577867545 0)
(-0.175317150544189 -0.00138199805736648 2.4523095438683e-20)
(-0.166631158462922 -0.0015059154559202 -2.43148378334417e-20)
(-0.157476380544291 -0.00160769517803965 2.44763254731236e-20)
(-0.147946525054108 -0.00168943417606672 -2.43910303408039e-20)
(-0.138125889165739 -0.00175305609279838 0)
(-0.12809033553236 -0.00180033312593492 0)
(-0.117907875947265 -0.00183295424333623 2.50134084407568e-20)
(-0.107639170193193 -0.00185251153939905 1.36424021848079e-22)
(-0.0973380254441325 -0.00186051339151462 -2.53925122820771e-20)
(-0.087051844436116 -0.00185837050471366 0)
(-0.0768221146979919 -0.00184739556177177 0)
(-0.0666848762905893 -0.0018287956133673 0)
(-0.0566712030200159 -0.00180367307379027 0)
(-0.0468076700018092 -0.00177302277188813 0)
(-0.0371168153551793 -0.00173773612047334 1.38905736641301e-20)
(-0.027617584296178 -0.00169860269489831 -1.40675240418369e-20)
(-0.0183257425600283 -0.00165631690594564 -7.18240160025839e-21)
(-0.00925430026259053 -0.00161149959326497 -2.58891784415643e-23)
(-0.000413842248916619 -0.00156464582978167 -2.51315638973383e-23)
(0.00818708604386897 -0.00151600699188636 7.45626222308732e-21)
(0.0165417078084208 -0.0014656481909553 0)
(0.0246446965372627 -0.00141413017857319 0)
(0.0324918303652057 -0.00136204176684826 0)
(0.0400799104072442 -0.00130955344015709 0)
(0.0474064333735198 -0.00125682770574152 7.70319277512946e-21)
(0.054469343253753 -0.00120395076444193 1.96323512602015e-23)
(0.0612669218218191 -0.00115096844273089 -7.79365390190664e-21)
(0.0677975509147034 -0.00109789457795679 0)
(0.0740595527594145 -0.00104470507086536 -1.58666002954086e-20)
(0.0800510062696207 -0.000991339888818645 1.59604417121806e-20)
(0.0857695793916373 -0.000937702759530485 -1.61306921591763e-20)
(0.0912123356623088 -0.000883658866160399 -3.38274344391926e-23)
(0.0963755545112182 -0.000829034530065333 -1.64529933530228e-20)
(0.101254491780981 -0.00077360902633565 3.30837170192756e-20)
(0.105843177413295 -0.000717115406947516 0)
(0.110134067684777 -0.00065922056715456 0)
(0.114117821336729 -0.000599533015987866 3.41783360325441e-20)
(0.117782712777 -0.000537555257840655 6.39741506204086e-23)
(0.121114439728335 -0.000472717249473836 -3.49037668660308e-20)
(0.124094988130808 -0.000404259145305661 -3.54027204081005e-20)
(0.126702713947621 -0.000331344477528038 3.58045328463051e-20)
(0.128909837387991 -0.000252791962445461 -3.63750835120004e-20)
(0.130683844445848 -0.000167310152220369 -6.78672327049394e-23)
(0.131981111010555 -7.33202385661886e-05 3.74622466012669e-20)
(0.132754048548559 3.03837269568956e-05 7.63537738135993e-20)
(0.132934555059966 0.000148201183381622 1.49929226632703e-22)
(0.13244530762082 0.000283624047147846 -7.88735317033047e-20)
(0.131160716399796 0.000445045772890127 0)
(0.128955706821199 0.000636271213179895 -8.24312894962676e-20)
(0.125590155274941 0.000875717024099176 8.43731142112171e-20)
(0.120861083636871 0.00116923888371554 8.71260785844537e-20)
(0.114238585793883 0.00156253865592947 -9.00340355226905e-20)
(0.105410950513578 0.00208995242720999 0)
(0.0927947678697591 0.00283788208930011 0)
(0.0760945870916084 0.00494530547657422 3.42704394816102e-18)
(0.0685535491211294 0.00857524036187519 2.77775497682417e-17)
(0.0697449431281058 0.0143118519951836 1.03909173687572e-19)
(0.0737926397826468 0.0211103951618586 -2.53138907392694e-17)
(0.080235687930807 0.0295311779068952 1.54283657594596e-21)
(0.0884402240903029 0.0395752051003916 0)
(0.0985348427961459 0.0515929115168428 0)
(0.111280941026907 0.0658985856324854 8.36320300895046e-20)
(0.126450749513451 0.0820395193692964 -8.0520308786292e-20)
(0.143672792789657 0.0994188293166662 6.85768594703606e-20)
(0.162677667200003 0.117588437766062 3.86762349061435e-17)
(0.183432272873691 0.136117778458616 -3.77571195505094e-17)
(0.204477158949821 0.153910953436732 0)
(0.224490296348535 0.171035969315596 -3.58367320066083e-20)
(0.244034429987462 0.188772658968157 3.57110481760204e-20)
(0.264013138239112 0.208066930632674 0)
(0.285649753581307 0.22999013897938 3.53636309219938e-17)
(0.311115371579697 0.256281728336644 0)
(0.346404135145323 0.289592367378807 3.20962671359563e-17)
(0.396474007363523 0.327333033099623 -3.53704769869058e-21)
(0.461995826796147 0.363577955352797 3.33311103865491e-21)
(0.549104307414706 0.393710054529015 2.32357377207794e-17)
(0.659714332894748 0.403247859935881 1.95501421461171e-17)
(0.790156248372308 0.366846565749443 -3.36102482779668e-17)
(0.865803576829573 0.251644001232232 7.7326764229247e-18)
(0.817707418593531 0.118406560259384 0)
(0.669627342497742 0.0311827907787832 1.1710004938093e-18)
(0.552139263381193 0.00347110353009751 -6.67179465000892e-22)
(0.640501289601078 -0.000470227441235122 4.64916945799115e-22)
(0.63926218342217 -0.01321523685656 -4.60539929498112e-22)
(0.589992626244885 -0.0503543931699628 3.87231264103324e-18)
(0.370855179493414 -0.0678161224697877 0)
(0.0246570117392431 0.0125821727509025 -3.06424469506908e-17)
(-0.123732148946931 0.0798409358494855 -4.19728516787059e-17)
(-0.111744524543182 0.0783220491011719 0)
(-0.0957701031970118 0.0741669183915702 0)
(-0.0850079167464343 0.0701550783383533 4.80759130120808e-17)
(-0.0812830231996996 0.0684269984239782 -5.1316490104018e-17)
(-0.0796815025918199 0.0663051347350172 5.34148427575626e-17)
(-0.0808163282140335 0.0659990408366386 -2.66485335882813e-20)
(-0.0835308612449546 0.0671649399875585 0)
(-0.0883120662989628 0.070328420931153 -5.38327382808569e-17)
(-0.0953224955171366 0.075506858609668 -5.15498150889897e-17)
(-0.104013917347218 0.0821361807302525 4.72684317655634e-20)
(-0.113224357439032 0.0887873430204852 -4.49350020434137e-17)
(-0.122312827240986 0.0938438465498862 -4.12029823525771e-17)
(-0.130997436696689 0.0965396973652003 3.78294245719878e-17)
(-0.138917417692866 0.0962134298055901 -3.46237939256847e-17)
(-0.145983729251839 0.0925395677145483 0)
(-0.152668102039925 0.0857510163235296 2.9489286058702e-17)
(-0.159133507372854 0.0766659183236634 5.37156804920368e-20)
(-0.16508741341797 0.0657024157152407 -2.58583652699845e-17)
(-0.170614132570497 0.0531705348558576 -1.22128027615098e-17)
(-0.176274026674771 0.0395723163098416 -1.17833807424694e-17)
(-0.18330533105372 0.0253457068653954 -5.51183209579053e-18)
(-0.195595282783188 0.0119469120700376 1.27980254628497e-18)
(-0.209339180119845 0.00511435662261858 -8.85329954048998e-24)
(-0.216951893200834 0.00294163041701666 -3.37042020752943e-20)
(-0.219686126318196 0.0014225179626629 -3.18791698098339e-20)
(-0.219667007727215 0.000476261382529444 0)
(-0.217415983500398 -0.000214214999674851 0)
(-0.213526594561946 -0.000745879857221432 -2.88331738309175e-20)
(-0.208278218021259 -0.00117590999639208 2.79522557333952e-20)
(-0.201918501911753 -0.00153247103633351 -2.75818687340866e-20)
(-0.194616197177186 -0.00183213717659428 2.70016679780319e-20)
(-0.186523021299318 -0.00208478981847412 0)
(-0.177764911212286 -0.00229703104112528 0)
(-0.168454894989518 -0.0024734066407307 0)
(-0.158693496238175 -0.00261761658621654 0)
(-0.14857166846505 -0.00273274483319742 1.32237949368027e-20)
(-0.138171483226079 -0.00282161475243302 -1.3167705827205e-20)
(-0.127566970794701 -0.00288682131249393 -1.3292153537363e-20)
(-0.116824631858691 -0.00293082421440739 2.66442324047664e-20)
(-0.106003882390402 -0.00295593558911361 -1.33733889306728e-20)
(-0.0951575101815993 -0.00296433721378686 0)
(-0.0843320919068845 -0.00295806552777103 0)
(-0.0735684532924016 -0.00293901109414624 0)
(-0.0629021142315362 -0.00290891063921266 0)
(-0.0523637489617381 -0.00286934849753945 -7.0577359330888e-21)
(-0.0419796360953731 -0.00282175418759909 -1.60344391812604e-15)
(-0.0317721041548395 -0.00276740809427401 -1.63146513869072e-15)
(-0.0217599620416279 -0.00270744500530427 -7.3053280506869e-21)
(-0.0119589017208223 -0.00264286335962123 -7.4359901405314e-21)
(-0.00238189966458302 -0.00257453891371228 7.50898925450379e-21)
(0.00696044278806069 -0.00250312504124376 0)
(0.016059512615916 -0.00242916542015267 0)
(0.024908438077743 -0.00235326945899893 0)
(0.033501799138671 -0.00227600142641049 0)
(0.0418352741761334 -0.00219772653229717 0)
(0.0499055242256162 -0.00211869964163997 0)
(0.0577098891893715 -0.00203914248628573 0)
(0.0652461550279455 -0.00195918492595392 0)
(0.0725124312937453 -0.00187889622504726 0)
(0.079506922763977 -0.00179829367203708 0)
(0.0862277672670045 -0.00171733841459934 -8.30701100995652e-21)
(0.0926728533694309 -0.00163593736600243 1.8938726745483e-15)
(0.0988396519598726 -0.00155394235234056 1.90541821662124e-15)
(0.104725024953788 -0.00147114683538135 -8.55442056122084e-21)
(0.110325043680025 -0.00138728379871471 1.7334360686238e-20)
(0.11563475458959 -0.0013020152217885 -1.74967037022604e-20)
(0.120647971788509 -0.00121492918584616 1.77364651302896e-20)
(0.125356943195777 -0.00112551553527641 -1.79159795741208e-20)
(0.129752112155072 -0.00103316674505601 0)
(0.133821568187099 -0.000937122600934744 1.84079476004662e-20)
(0.137550812014765 -0.000836491069721654 -1.86203641699564e-20)
(0.140921722694896 -0.000730118114242541 0)
(0.143912507730791 -0.000616677046921866 0)
(0.146495501499677 -0.000494381035209638 0)
(0.148637988366168 -0.000361187197766272 0)
(0.150297464029842 -0.000214602689710228 0)
(0.151422757957534 -5.22092598641474e-05 0)
(0.151947181066753 0.000132166144514856 0)
(0.151793231841732 0.000344427111841942 -4.26198356378382e-20)
(0.150841365087146 0.000596181235146961 8.6928355141518e-20)
(0.148967598636166 0.000895788782172439 -8.89405003547991e-20)
(0.145947043179912 0.00126802340445454 4.55839770216047e-20)
(0.141577763905155 0.00172927910035848 0)
(0.135378074776577 0.00233857883150352 0)
(0.127037079844313 0.00316475756795295 0)
(0.115281191244253 0.00431924657480742 -5.40664220259211e-20)
(0.0994595536048072 0.00709681048589284 -3.61930625089645e-18)
(0.0906950221360518 0.0117489781634591 -7.36597081757364e-18)
(0.0902855046441942 0.0185222178668248 1.40901057329553e-17)
(0.093396973460995 0.0264570152371293 5.23630979674657e-20)
(0.0993360435216635 0.0360630236356511 5.10448538336986e-17)
(0.107389305888567 0.0473247460039303 -4.79028787938447e-20)
(0.117601517477031 0.0605727483500071 4.58949911918395e-20)
(0.130621242832135 0.0760277940239514 2.26100111035647e-17)
(0.146320508642395 0.0932914335464217 -2.17772024517398e-17)
(0.164354757219246 0.111813312756515 -2.11591629392392e-17)
(0.184462740682864 0.131179906857483 -4.01003209258544e-20)
(0.206563780965144 0.150967401202517 4.87230609566196e-20)
(0.229395477318144 0.170338638480775 -1.94426101146945e-20)
(0.251668237582478 0.189464683297382 3.88603372493127e-20)
(0.273808716726398 0.209532359860621 -1.98742959647023e-17)
(0.296661168615966 0.231442180173564 1.92239218937469e-20)
(0.321428679370531 0.256228932959863 -1.9598433626355e-17)
(0.350191562104302 0.28540293210783 -9.22410313268585e-21)
(0.388484177454258 0.320770609350864 8.90277942761747e-21)
(0.441540139034284 0.359411757803396 2.00077278699279e-21)
(0.510186686582834 0.395172377499143 -1.89311582215954e-21)
(0.59951162283034 0.422212006163147 0)
(0.71066769682058 0.425643201226837 0)
(0.840008976053271 0.381700102424381 -2.63681931929743e-20)
(0.926805596893219 0.265023785713585 -4.55000946098171e-18)
(0.911945184590734 0.13248220055481 0)
(0.802870925334082 0.0403873167346883 -7.35902144065088e-19)
(0.690530951721233 0.00751452875863977 0)
(0.715774089735412 0.00126416353763507 0)
(0.704863524210961 -0.0135255206785361 6.43930805667866e-19)
(0.663156889010747 -0.0523524740384778 5.81164228302424e-21)
(0.47495275840385 -0.0802689348876991 1.72908726807166e-21)
(0.115718819728 -0.0126827058419489 2.10966107190727e-17)
(-0.101010837137807 0.0720184719540169 2.92140059773886e-17)
(-0.114458601496713 0.0796973879920066 0)
(-0.102436871031611 0.0783725869501902 0)
(-0.0930580233485406 0.0762640452656413 3.2959300910539e-17)
(-0.0902433176352884 0.0757310993362867 3.54332880858802e-17)
(-0.0895473641326901 0.0744620123146092 -3.68355959434068e-17)
(-0.0914191355275197 0.0747636046628637 0)
(-0.0947765214451522 0.0764556854343471 -3.7453490163989e-17)
(-0.0999903054042167 0.0800421850425857 5.82523760327874e-22)
(-0.107072899134847 0.0853792634349984 -3.43810321031968e-17)
(-0.115402580314475 0.0917919555311583 3.17802498440521e-17)
(-0.123939932532585 0.0978909751180961 2.86556761298479e-22)
(-0.132242655959485 0.102166324452179 2.63369250479342e-17)
(-0.140134804740341 0.103948303536367 -2.39138046963559e-17)
(-0.147399535397841 0.102708065875818 4.56655251158132e-20)
(-0.154029437427757 0.098212876201055 -3.91261315612937e-20)
(-0.160452604401965 0.0906705577528772 0)
(-0.166755878228986 0.0808502283657417 1.73983002805894e-17)
(-0.172685193484326 0.0691959017067245 1.64238339961907e-17)
(-0.178340556608743 0.05604250275279 0)
(-0.184195369193735 0.0418991364068258 -7.49090177113193e-18)
(-0.191135893777757 0.0272358515149171 2.7875420232032e-20)
(-0.202066247343979 0.0134265275351987 -8.51041588127834e-19)
(-0.213373639775747 0.00612426514577653 2.85699641933745e-24)
(-0.219363008280844 0.00340660078971199 -2.1718032856892e-20)