/*--------------------------------*- C++ -*----------------------------------*\
  =========                 |
  \\      /  F ield         | OpenFOAM: The Open Source CFD Toolbox
   \\    /   O peration     | Website:  https://openfoam.org
    \\  /    A nd           | Version:  7
     \\/     M anipulation  |
\*---------------------------------------------------------------------------*/
FoamFile
{
    version     2.0;
    format      ascii;
    class       volVectorField;
    location    "10000";
    object      wallShearStress;
}
// * * * * * * * * * * * * * * * * * * * * * * * * * * * * * * * * * * * * * //

dimensions      [0 2 -2 0 0 0 0];

internalField   uniform (0 0 0);

boundaryField
{
    bottomWall
    {
        type            calculated;
        value           nonuniform List<vector> 
120
(
(-0.00495989075944895 4.16922902324136e-05 5.58987071289983e-23)
(-0.00601511551106102 0.000166316976309353 1.15134192494082e-19)
(-0.00422406156813237 0.000516071582667459 3.76158192263132e-37)
(-0.000235291088753196 0.000200778694853258 1.00112950833248e-18)
(0.00223265538374251 -0.00084890323064816 1.22920953665022e-22)
(0.00209756454004536 -0.00113681665071393 4.43159433968717e-22)
(0.00143132332865374 -0.000930182978510689 2.21208859964696e-18)
(0.00109628103679091 -0.000792105519144702 -2.24151814484936e-18)
(0.00086679458537825 -0.000671398292694382 6.34996979573966e-16)
(0.000757664219954236 -0.000600341278125211 6.36733026416248e-16)
(0.000666277999303657 -0.000527172104609081 -5.5727712949997e-22)
(0.000617923675345524 -0.000483196741232782 1.10982803440129e-21)
(0.000587417448244204 -0.000455784867721232 -1.11167354328117e-21)
(0.000579910755028231 -0.000448125570446333 2.27051964033159e-18)
(0.000599314717571351 -0.000461704794114253 2.26700736509169e-18)
(0.000646746783231968 -0.000495404124239096 2.20301933656624e-21)
(0.00070936827682379 -0.000537254113850628 2.23736037408604e-18)
(0.000774194759977971 -0.000571597464533684 -4.45081234075809e-18)
(0.000839015840229906 -0.000593260147117605 2.20434879892747e-18)
(0.00089612741608037 -0.000595005471549014 2.19784096128642e-18)
(0.000935306765152264 -0.00057047715509294 -2.17777072322018e-18)
(0.000960161369591006 -0.000522583755853453 2.15559089717363e-18)
(0.000983748680092061 -0.000463033060622143 8.48615716470152e-24)
(0.00100338388999052 -0.000394372638952175 -2.10478139068251e-18)
(0.00101616753706762 -0.000316759848414051 -9.02779661431517e-36)
(0.001022970198408 -0.000231409878265826 0)
(0.000999307633078528 -0.000137889006673769 1.49333995917056e-16)
(0.00109076695635281 -5.76729166026416e-05 1.49006218249266e-16)
(0.00139160830382526 -2.41986714502077e-05 -4.62866004051925e-25)
(0.00165114690054252 -2.1887392018271e-05 -1.34617648482808e-32)
(0.0017994934783331 -1.90121918288322e-05 -0)
(0.00189704899926966 -1.72915134320232e-05 1.5541399900841e-16)
(0.00195528479522242 -1.60197764660705e-05 1.56924989904594e-16)
(0.00198583463996358 -1.48572814142031e-05 0)
(0.00199325432362907 -1.37213800792794e-05 -1.80417087955114e-53)
(0.00198167363109713 -1.25981488737938e-05 -1.1712113457735e-51)
(0.00195407692612479 -1.15037493952958e-05 -0)
(0.00191278493895874 -1.04185208302249e-05 1.83109856490545e-21)
(0.00185970840137284 -9.35288253686353e-06 -1.52416911677464e-16)
(0.00179658594806649 -8.3174056704295e-06 -1.55418539559127e-16)
(0.00172498655840246 -7.32238417923693e-06 1.86934348829849e-21)
(0.00164635930020713 -6.37669225191263e-06 1.90180097996352e-21)
(0.00156203581507592 -5.48692728319796e-06 -1.9128570542581e-21)
(0.00147323569749008 -4.65766988618567e-06 1.94822219740212e-21)
(0.00138106773007465 -3.89138550590718e-06 -1.96239220627801e-21)
(0.00128653034419702 -3.1888564871692e-06 -0)
(0.00119051453509775 -2.54936569411121e-06 1.74457912187142e-16)
(0.00109380689601366 -1.97107325992784e-06 1.78023800927959e-16)
(0.000997094951010371 -1.45125134554447e-06 2.07848482417651e-21)
(0.000900972993157694 -9.86569810045164e-07 -1.05140128930269e-21)
(0.00080594907940229 -5.73279328809924e-07 1.07098567237385e-21)
(0.000712452312986671 -2.07415044812686e-07 -2.16701766138516e-21)
(0.000620840533121249 1.15083209307227e-07 1.82673366898654e-16)
(0.000531407953589584 3.98239786627789e-07 1.85804130941868e-16)
(0.00044439249348414 6.45988356571807e-07 5.6314732028926e-22)
(0.000359983255951612 8.61940312937536e-07 -8.0707061775251e-42)
(0.000278326688100381 1.05004878041676e-06 -3.37048819357136e-32)
(0.000199533817858164 1.22009207500747e-06 2.93647987824729e-22)
(0.000123684309279399 1.39483590203482e-06 -4.44957191904138e-22)
(5.08324574577379e-05 1.56771816365064e-06 1.49958556835173e-22)
(-1.89857894256834e-05 1.7103191361666e-06 0)
(-8.57530207615557e-05 1.82316153486243e-06 -3.02529665675571e-22)
(-0.000149464185576953 1.91832209950372e-06 3.01142068342735e-22)
(-0.000210121730789687 2.00037818937642e-06 -3.50457841221651e-32)
(-0.00026773516169354 2.07123964191413e-06 -0)
(-0.000322316819331009 2.1327366648141e-06 6.01184126124666e-22)
(-0.000373879786308045 2.18649502337319e-06 -5.99210320837169e-22)
(-0.000422435304339685 2.23397193493231e-06 -0)
(-0.00046799069474435 2.27647417000536e-06 0)
(-0.000510546893391701 2.31516528005895e-06 0)
(-0.000550096512766045 2.35110642176838e-06 0)
(-0.000586620908842094 2.38522870875128e-06 0)
(-0.000620088442519279 2.41841818829712e-06 -2.00349398791511e-16)
(-0.000650450068798721 2.45140888987843e-06 -3.99774501640833e-16)
(-0.000677638326788291 2.48498797694533e-06 -1.99382349169093e-16)
(-0.000701559185057007 2.51967986982514e-06 4.81097973992163e-21)
(-0.000722093863075276 2.55628785236901e-06 -2.40741196149115e-21)
(-0.000739081197355992 2.59501186568508e-06 2.41684182263906e-21)
(-0.000752329518783367 2.63692007845834e-06 -2.41842405694425e-21)
(-0.000761572874684858 2.68173799947499e-06 -2.03202369603272e-16)
(-0.000766525668239723 2.73204254456092e-06 -2.01888650563466e-16)
(-0.000766757396191424 2.7869738478845e-06 2.44290085350845e-21)
(-0.000761903319857725 2.85112442724225e-06 -2.457519214924e-21)
(-0.000751276142557705 2.91530320340121e-06 4.9336565510685e-21)
(-0.000734235205149777 2.98967539276109e-06 -2.4778947493058e-21)
(-0.000709408954142837 3.04985328035999e-06 4.99749901825857e-21)
(-0.000675896608508452 3.13047157774825e-06 -1.00594078244847e-20)
(-0.000631007527547872 3.16642380341481e-06 5.06830389025817e-21)
(-0.000573785054994708 3.25467274157982e-06 5.13339816632775e-21)
(-0.000498171129696284 3.2104482480216e-06 -1.03834988933134e-20)
(-0.000404807831633716 3.2068754327676e-06 3.18132432737318e-26)
(-0.000273382974625811 2.42802543842682e-06 6.56111561208859e-25)
(-0.000105694462537187 -1.68997097126838e-06 -7.3468396926393e-40)
(-8.33838839517822e-05 -9.54694119806455e-06 -5.54314546920958e-21)
(-0.000145741009562274 -3.88827846645525e-05 1.42353327410299e-18)
(-0.000207427963698955 -7.59971444865297e-05 1.52283607769343e-23)
(-0.000298790059457219 -0.000133029462494646 2.78595999297373e-18)
(-0.000410429314058106 -0.000211474300750436 2.79024233705401e-18)
(-0.00055237768553818 -0.000319021481458453 -2.77203883911464e-18)
(-0.000742445863043906 -0.000465746887665063 2.75660654579255e-18)
(-0.000972570757463548 -0.000646856416344363 -2.74117232803329e-18)
(-0.00123635290809009 -0.000855366142033162 -2.72504834955736e-18)
(-0.00153086079231104 -0.00108543976492532 -1.71528135671988e-34)
(-0.00185590319002907 -0.00133094507977066 0)
(-0.00217081620976307 -0.00156490082353148 2.67855848713998e-18)
(-0.00246718291935291 -0.00179242563378049 2.66819712709996e-18)
(-0.00278485853308563 -0.00204423153789402 2.65787086510561e-18)
(-0.00314767071294165 -0.00234021590010002 2.64481415283905e-18)
(-0.00358993587336837 -0.00270671169471852 2.6264699512304e-18)
(-0.00418319418073767 -0.0031945653386064 -2.59294930287546e-18)
(-0.00510055021102274 -0.00389129066313859 -2.53273431824888e-18)
(-0.0063739116179934 -0.00472728927817052 2.44046358101562e-18)
(-0.00794599144883005 -0.00557076433237801 -2.30683642079117e-18)
(-0.0100306609968607 -0.00636958674770337 -2.12379650260686e-18)
(-0.012529191148219 -0.00677049473303231 1.88341176286398e-18)
(-0.0148937139756008 -0.00608880515014298 2.5578757073893e-35)
(-0.0137131135918903 -0.0034792562077927 -7.03469374262102e-19)
(-0.00945237979211562 -0.00113234948494701 1.88079096131566e-37)
(-0.00523656638150815 -0.000134370094183891 9.98517681796379e-20)
(-0.00396178512617172 3.6236199301238e-05 0)
)
;
    }
    topWall
    {
        type            calculated;
        value           nonuniform List<vector> 
120
(
(-0.00525984123613127 -1.41214040080941e-06 0)
(-0.00525315379061162 -1.33432166599406e-06 0)
(-0.00524250690090652 -1.26632931299824e-06 0)
(-0.00522821257302437 -1.20721180206099e-06 0)
(-0.00521058925592583 -1.15677588394458e-06 0)
(-0.00518996452311228 -1.11480931765913e-06 0)
(-0.00516666803004932 -1.08076493501845e-06 0)
(-0.00514102036471432 -1.05386291023031e-06 0)
(-0.00511332532114975 -1.03321200187658e-06 0)
(-0.00508386487049075 -1.01786379812885e-06 0)
(-0.00505289560816787 -1.00685679418853e-06 0)
(-0.00502064664588969 -9.99256452924676e-07 0)
(-0.00498731889079232 -9.9418918902231e-07 0)
(-0.00495308557091535 -9.9086898787901e-07 0)
(-0.00491809383457445 -9.88614454242635e-07 0)
(-0.0048824669765136 -9.86853625851768e-07 0)
(-0.0048463071293779 -9.8512748697991e-07 0)
(-0.00480969845852604 -9.83094766224356e-07 0)
(-0.00477271058795893 -9.80523438677862e-07 0)
(-0.0047354018642114 -9.77276669266028e-07 0)
(-0.00469782232099364 -9.73298267529845e-07 0)
(-0.00466001632689742 -9.68599234610383e-07 0)
(-0.00462202490454864 -9.63244883636255e-07 0)
(-0.00458388771102118 -9.57342741374639e-07 0)
(-0.00454564465608242 -9.51030692656111e-07 0)
(-0.00450733716447781 -9.44466627662825e-07 0)
(-0.00446900907833742 -9.37818143149082e-07 0)
(-0.00443070723944467 -9.31255341856856e-07 0)
(-0.00439248177063151 -9.24942694748396e-07 0)
(-0.00435438609389442 -9.19034512556848e-07 0)
(-0.00431647673062139 -9.13669815922069e-07 0)
(-0.00427881291749686 -9.0896998360811e-07 0)
(-0.00424145608529768 -9.05036400255706e-07 0)
(-0.00420446924246699 -9.01950312481245e-07 0)
(-0.00416791630469593 -8.99772649231732e-07 0)
(-0.00413186140462479 -8.98545331181701e-07 0)
(-0.0040963682116754 -8.98292608514434e-07 0)
(-0.00406149929217798 -8.99023140151156e-07 0)
(-0.00402731551189698 -9.0073207167005e-07 0)
(-0.00399387553940721 -9.0340341326319e-07 0)
(-0.00396123534222038 -9.07012412110328e-07 0)
(-0.00392944800460481 -9.11529210641576e-07 0)
(-0.00389856309588502 -9.16907124650899e-07 0)
(-0.00386862671558395 -9.231315786888e-07 0)
(-0.00383968226003149 -9.30153962951288e-07 0)
(-0.00381176820667407 -9.37912371055985e-07 0)
(-0.00378491988159602 -9.46396857857003e-07 0)
(-0.00375916953090026 -9.55573025112621e-07 0)
(-0.00373454603728166 -9.65414013754044e-07 0)
(-0.00371107520828285 -9.7589712921713e-07 0)
(-0.00368878000282986 -9.8700600043195e-07 0)
(-0.00366768085324135 -9.98731955213816e-07 0)
(-0.00364779600882194 -1.01107345129168e-06 0)
(-0.00362914187513416 -1.02403602424687e-06 0)
(-0.00361173336313544 -1.03763232869772e-06 0)
(-0.00359558424417491 -1.05188214256809e-06 0)
(-0.00358070751062078 -1.06681220028545e-06 0)
(-0.00356711572068164 -1.08245607453903e-06 0)
(-0.00355482136959922 -1.09885454676216e-06 0)
(-0.00354383721885563 -1.11605399455196e-06 0)
(-0.00353417658375667 -1.1341058220143e-06 0)
(-0.00352585364957108 -1.15306815267635e-06 0)
(-0.00351888381670826 -1.17300561528317e-06 0)
(-0.00351328398052306 -1.19398762901526e-06 0)
(-0.0035090727940146 -1.21608695337352e-06 0)
(-0.00350627074518545 -1.23938535859703e-06 0)
(-0.00350490100910721 -1.26400726545718e-06 0)
(-0.00350498999592511 -1.28994125419503e-06 0)
(-0.00350655937207502 -1.31769558421874e-06 0)
(-0.00350966802459284 -1.34757043828881e-06 0)
(-0.00351435541093145 -1.37904021520738e-06 0)
(-0.00352065277032921 -1.41204628496764e-06 0)
(-0.00352859099831809 -1.44666404507814e-06 0)
(-0.0035382046103368 -1.483019615824e-06 0)
(-0.00354953167225022 -1.52119453693808e-06 0)
(-0.00356261251507075 -1.56124801326365e-06 0)
(-0.00357748929520631 -1.60323038943399e-06 0)
(-0.00359420565440078 -1.6471793662444e-06 0)
(-0.00361280620015821 -1.6931155984893e-06 0)
(-0.00363333583771878 -1.74103872249823e-06 0)
(-0.00365583898179375 -1.79092434242657e-06 0)
(-0.00368035866583228 -1.84272096081116e-06 0)
(-0.00370693555021693 -1.89634685622853e-06 0)
(-0.0037356068157841 -1.95168638064796e-06 0)
(-0.00376640493395585 -2.00858637421048e-06 0)
(-0.0037993563126814 -2.06685233483757e-06 0)
(-0.00383447981001827 -2.12624447604537e-06 0)
(-0.00387178511654021 -2.18647389599497e-06 0)
(-0.00391127100685085 -2.24719883460996e-06 0)
(-0.00395292347198113 -2.30802139123549e-06 0)
(-0.003996713738389 -2.36848451463818e-06 0)
(-0.00404259620136329 -2.42807011795954e-06 0)
(-0.00409050629009381 -2.48619764033759e-06 0)
(-0.00414035830719987 -2.54222457255746e-06 0)
(-0.00419204328448668 -2.59544786361148e-06 0)
(-0.00424542690569747 -2.64510778618312e-06 0)
(-0.00430034757092843 -2.69039379510132e-06 0)
(-0.00435661466671452 -2.73045296637047e-06 0)
(-0.00441400714631601 -2.76440198197621e-06 0)
(-0.0044722725135867 -2.79134247069277e-06 0)
(-0.00453112636932876 -2.81038161202616e-06 0)
(-0.00459025263032228 -2.82065539248105e-06 0)
(-0.00464930457818396 -2.82136033667302e-06 0)
(-0.00470790705769911 -2.81178889773486e-06 0)
(-0.00476565963012151 -2.79135169441471e-06 0)
(-0.00482214075537081 -2.75963624060196e-06 0)
(-0.0048769143457803 -2.71645609241539e-06 0)
(-0.0049295366978983 -2.66184972794906e-06 0)
(-0.00497956466374534 -2.59612915202153e-06 0)
(-0.00502656532856343 -2.5199181316545e-06 0)
(-0.0050701265561536 -2.43414533123659e-06 0)
(-0.00510986762999751 -2.34003863234998e-06 0)
(-0.00514544979588078 -2.23910159957259e-06 0)
(-0.0051765861656652 -2.13307236781659e-06 0)
(-0.00520305028443366 -2.02386223877092e-06 0)
(-0.00522468289971523 -1.91348518741872e-06 0)
(-0.00524139636029136 -1.80397132566579e-06 0)
(-0.00525317636900355 -1.6972819776638e-06 0)
(-0.00526008065521425 -1.59529802308287e-06 0)
(-0.00526224022189438 -1.49974346158876e-06 0)
)
;
    }
    inlet_half0
    {
        type            cyclic;
    }
    inlet_half1
    {
        type            cyclic;
    }
    outlet_half0
    {
        type            cyclic;
    }
    outlet_half1
    {
        type            cyclic;
    }
    sideRight_half0
    {
        type            empty;
    }
    sideRight_half1
    {
        type            empty;
    }
    sideLeft_half0
    {
        type            empty;
    }
    sideLeft_half1
    {
        type            empty;
    }
}


// ************************************************************************* //
