5 	0.00391112967796274 	3.46944695195361e-18 	1.12911970065452 	0.000114442117754346 	441.229951535511
5 	0.0118766651674915 	6.93889390390723e-18 	1.12911275152486 	0.0010452177565366 	127.824089166469
5 	0.020134001548576 	0 	1.12909149868438 	0.00367171487229717 	32.6177790607757
5 	0.0286938283423949 	-6.93889390390723e-18 	1.12904318737381 	0.00660408696987111 	14.9868455749839
5 	0.0375672266585909 	1.73472347597681e-18 	1.12896514669813 	0.00902652881190784 	9.42406699182389
5 	0.0467656835403033 	1.04083408558608e-17 	1.12886633756415 	0.0110081522205395 	6.93266199327483
5 	0.0563011068347008 	1.04083408558608e-17 	1.12875415312252 	0.012709973421908 	5.54199721523955
5 	0.0661858406082649 	3.46944695195361e-18 	1.12863202785032 	0.014230325061095 	4.65788097298236
5 	0.0764326811267816 	5.20417042793042e-18 	1.12850196276844 	0.0156268369468962 	4.04792917616518
5 	0.0870548934207257 	1.21430643318376e-17 	1.12836560784121 	0.0169355234490412 	3.60340155344727
5 	0.0980662284574838 	1.21430643318376e-17 	1.12822438847911 	0.0181804171327321 	3.26670519190475
5 	0.109480940942647 	1.04083408558608e-17 	1.12807955451896 	0.0193784649589761 	3.00448655462721
5 	0.121313807773416 	1.04083408558608e-17 	1.12793224337202 	0.0205421728556473 	2.79608994786214
5 	0.13358014716801 	1.04083408558608e-17 	1.1277835195718 	0.0216811235422488 	2.62804123882926
5 	0.146295838495839 	8.67361737988404e-18 	1.12763439451814 	0.0228028940118333 	2.49118128132012
5 	0.159477342834115 	8.67361737988404e-18 	1.12748583672887 	0.0239136338330334 	2.37907376878581
5 	0.173141724277517 	1.21430643318376e-17 	1.12733877687649 	0.0250184414528525 	2.28707165890773
5 	0.18730667202848 	1.21430643318376e-17 	1.1271941093253 	0.0261216142460323 	2.21174452353573
5 	0.201990523296728 	1.21430643318376e-17 	1.12705269131008 	0.0272268159044748 	2.1505136283045
5 	0.217212287037675 	1.56125112837913e-17 	1.12691534059343 	0.0283371870793763 	2.10141161462777
5 	0.232991668560441 	2.25514051876985e-17 	1.12678283220218 	0.0294554150181919 	2.0629195956762
5 	0.249349095037321 	3.12250225675825e-17 	1.1266558946898 	0.030583771838464 	2.03385381006109
5 	0.266305741947753 	3.46944695195361e-17 	1.12653520630317 	0.0317241272740167 	2.01328481123996
5 	0.283883560490998 	2.60208521396521e-17 	1.1264213915086 	0.032877939262709 	2.00047846222706
5 	0.30210530600303 	1.73472347597681e-17 	1.12631501815885 	0.0340462240918937 	1.99485177324638
5 	0.320994567414413 	2.25514051876985e-17 	1.12621659359246 	0.0352295067062567 	1.99593893919777
5 	0.340575797787321 	2.42861286636753e-17 	1.12612656303756 	0.0364277512188657 	2.00336440573955
5 	0.360874345971201 	2.60208521396521e-17 	1.12604531167269 	0.037640269764185 	2.01682063259488
5 	0.38191648941809 	2.42861286636753e-17 	1.12597316098492 	0.0388656102889414 	2.03604901762175
5 	0.403729468200045 	1.73472347597681e-17 	1.12591036836755 	0.0401014212487123 	2.06082265744564
5 	0.426341520272733 	2.08166817117217e-17 	1.1258571280325 	0.0413442924713861 	2.09092995218909
5 	0.449781918030829 	1.90819582357449e-17 	1.12581361253673 	0.0425895718381995 	2.12615820895359
4.99999999999999 	0.474081006202548 	1.56125112837913e-17 	1.12578001554888 	0.0438311586647772 	2.16627650275597
5 	0.499270241132363 	1.56125112837913e-17 	1.12575592597864 	0.0450612750842093 	2.21101704721607
5 	0.525382231502762 	1.56125112837913e-17 	1.12573894624892 	0.0462702136451748 	2.26005421905694
5 	0.552450780547767 	2.25514051876985e-17 	1.12573335897349 	0.0474462402884087 	2.31299013650475
5 	0.580510929812849 	3.20923843055709e-17 	1.12578274577229 	0.0485772979201852 	2.36942623109981
5 	0.60959900451791 	3.98986399474666e-17 	1.12591180168314 	0.0496550051197951 	2.42908666994205
5 	0.639752660582032 	3.90312782094782e-17 	1.12606848761132 	0.0506579085544081 	2.49032362391601
5 	0.671010933370886 	3.72965547335014e-17 	1.12620341547846 	0.0515280377742249 	2.54895971082659
4.99999999999999 	0.7034142882299 	3.29597460435593e-17 	1.12630700470875 	0.0521958249412346 	2.5998151405067
4.99999999999999 	0.737004672868605 	2.68882138776405e-17 	1.12638665257403 	0.0525998539461459 	2.63814415367556
4.99999999999999 	0.771825571663975 	3.12250225675825e-17 	1.12645116509493 	0.052693952665565 	2.66029487300948
4.99999999999999 	0.807922061953053 	2.68882138776405e-17 	1.1265050142507 	0.0524461149914948 	2.66379688393615
4.99999999999999 	0.845340872387742 	1.21430643318376e-17 	1.12654736266274 	0.0518363392322797 	2.64727127621053
5 	0.884130443427308 	1.30104260698261e-18 	1.12657349287775 	0.0508573815867965 	2.61029336648891
5 	0.924340990046897 	3.90312782094782e-18 	1.12657691675389 	0.0495185721796408 	2.55323348215626
5 	0.966024566743241 	6.93889390390723e-18 	1.12655100318774 	0.0478505387956054 	2.47716342710464
5 	1.00923513492173 	6.50521303491303e-18 	1.12648977811229 	0.045907864672507 	2.38388352098607
5 	1.05402863275205 	1.2793585635329e-17 	1.12638810567222 	0.043767115257587 	2.27600827333684
5 	1.10046304758287 	1.99493199737333e-17 	1.12624160945515 	0.0415191203597485 	2.15696844526714
5 	1.14859849100923 	2.71050543121376e-17 	1.12604668157073 	0.0392565968703662 	2.03080324623417
5 	1.19849727668994 	2.82976767018717e-17 	1.12580104405071 	0.0370617665739661 	1.901990679083
5 	1.25022400101563 	2.35271871429354e-17 	1.12550415425603 	0.035001288224158 	1.7760287095479
5 	1.30384562673185 	2.42861286636753e-17 	1.12515637770272 	0.0331065699099014 	1.65574037346113
5 	1.35943156962565 	3.12250225675825e-17 	1.1247608746909 	0.0313728153352391 	1.54137390341012
5 	1.41705378838762 	3.12250225675825e-17 	1.12432180897788 	0.0297842856070116 	1.43363616762546
5 	1.47678687776592 	2.08166817117217e-17 	1.12384273490203 	0.0283171402170641 	1.33318923249978
5 	1.53870816513277 	1.73472347597681e-17 	1.12333040665491 	0.0269397854713324 	1.23942080434955
5 	1.60289781058851 	2.08166817117217e-17 	1.1228234167461 	0.0256084240535106 	1.14912505552666
5 	1.66943891073266 	2.08166817117217e-17 	1.12231377330464 	0.0242948319311641 	1.06192327392292
5 	1.73841760623657 	2.42861286636753e-17 	1.12176836246005 	0.0229922577803282 	0.98187685669165
5 	1.80992319335659 	3.46944695195361e-17 	1.12119288571741 	0.0216921010917632 	0.911572655018108
5 	1.88404823953248 	4.5102810375397e-17 	1.12059028269705 	0.0203793968766725 	0.850614749668104
5 	1.96088870322037 	5.20417042793042e-17 	1.11997020513405 	0.0190655240510651 	0.798635144086296
5 	2.02024009608345 	5.55111512312578e-17 	1.11949314604965 	0.0180455542825442 	0.764346605511962
5 	2.06000503604194 	0 	1.1191598960456 	0.0173399534770379 	0.743155716855652
5 	2.09836474743796 	0 	1.11885098886403 	0.0166868013285329 	0.72566849178102
5 	2.13536888877258 	-3.46944695195361e-18 	1.11855405880159 	0.0160612585308368 	0.71087062834805
5 	2.17106536369585 	-6.93889390390723e-18 	1.11826938356305 	0.0154627055757491 	0.698598870603439
5 	2.20550038302044 	-6.93889390390723e-18 	1.11799662598496 	0.0148905391556838 	0.688730447519865
5 	2.23871852454378 	-6.93889390390723e-18 	1.11773541104249 	0.0143441294762452 	0.68117496271139
5 	2.27076279075613 	-6.93889390390723e-18 	1.11748538261223 	0.0138228051641657 	0.675869242135698
5 	2.3016746645094 	-6.93889390390723e-18 	1.117246189325 	0.0133258539398618 	0.672774164792641
5 	2.33149416271872 	0 	1.11701748799592 	0.0128525322584656 	0.671872874123792
5 	2.36025988816626 	6.93889390390723e-18 	1.11679894757039 	0.0124020794396484 	0.673169974315436
5 	2.38800907947441 	0 	1.11659025073175 	0.011973733425768 	0.676691458550272
5 	2.41477765931295 	-6.93889390390723e-18 	1.11639109426545 	0.011566746447928 	0.682485215797345
5 	2.44060028090272 	-3.46944695195361e-18 	1.11620118862898 	0.011180399642864 	0.690622031130678
5 	2.46551037287586 	-6.93889390390723e-18 	1.11602025694459 	0.0108140161546793 	0.7011970415502
5 	2.48954018255081 	-1.38777878078145e-17 	1.11584803360348 	0.0104669725560454 	0.714331641812738
5 	2.512720817678 	-6.93889390390723e-18 	1.11568426263694 	0.0101387085927313 	0.730175857617338
5 	2.53508228671037 	-6.93889390390723e-18 	1.11552869597573 	0.00982873533542008 	0.748911219757397
5 	2.55665353765073 	-1.38777878078145e-17 	1.11538109169113 	0.00953664184304377 	0.770754184477999
5 	2.57746249552636 	-6.93889390390723e-18 	1.1152412122881 	0.00926210042234393 	0.795960153275514
5 	2.59753609853934 	0 	1.11510882310193 	0.00900487052251572 	0.824828150059015
5 	2.61690033293929 	0 	1.11498369083414 	0.00876480124085572 	0.857706214711003
5 	2.63558026666389 	3.46944695195361e-18 	1.11486558225151 	0.008541832342089 	0.894997568943852
5 	2.65360008179049 	6.93889390390723e-18 	1.11475426306281 	0.00833599361623802 	0.937167601918205
5 	2.67098310584102 	1.04083408558608e-17 	1.11464949698223 	0.00814740232333753 	0.984751708147733
5 	2.68775184198056 	1.38777878078145e-17 	1.11455104498528 	0.00797625840468876 	1.0383639875568
5 	2.70392799814879 	1.04083408558608e-17 	1.11445866476254 	0.0078228370877161 	1.09870678631746
5 	2.71953251516198 	1.38777878078145e-17 	1.11437211037801 	0.00768747848421547 	1.16658101720446
5 	2.73458559382185 	2.08166817117217e-17 	1.11429113214146 	0.00757057379005193 	1.24289715105879
5 	2.74910672106653 	2.42861286636753e-17 	1.11421547670665 	0.00747254774806433 	1.32868672024435
5 	2.76311469519732 	2.42861286636753e-17 	1.11414488740881 	0.0073938371430713 	1.42511412784232
5 	2.776627650214 	1.38777878078145e-17 	1.11407910485339 	0.00733486526276806 	1.53348852468656
5 	2.78966307929018 	6.93889390390723e-18 	1.1140178677635 	0.00729601248012125 	1.65527551861576
5 	2.80223785741904 	6.93889390390723e-18 	1.11396091408451 	0.00727758338491047 	1.79210854335956
5 	2.81436826325886 	6.93889390390723e-18 	1.11390798233238 	0.00727977120221268 	1.94579987564322
5 	2.82607000020647 	6.93889390390723e-18 	1.11385881315736 	0.00730262056775642 	2.11835159784163
5 	2.83735821672613 	1.04083408558608e-17 	1.11381315108002 	0.00734599006594397 	2.31196732126447
5 	2.8482475259599 	1.38777878078145e-17 	1.11377074635011 	0.00740951625765723 	2.52906628122474
5 	2.85875202464506 	1.38777878078145e-17 	1.11373135686996 	0.00749258121709814 	2.7723025559818
5 	2.86888531136304 	1.38777878078145e-17 	1.1136947499967 	0.00759428585990708 	3.0445936936807
5 	2.87866050414343 	1.73472347597681e-17 	1.11366070409738 	0.00771343162523825 	3.34916496555016
5 	2.88809025744591 	2.08166817117217e-17 	1.11362901210687 	0.00784851353814385 	3.6896177991918
5 	2.89718677854204 	2.42861286636753e-17 	1.11359948638681 	0.00799772867434068 	4.07003403833978
5 	2.90596184331818 	2.77555756156289e-17 	1.11357192346232 	0.0081590058129684 	4.49516197574977
5 	2.91442681151997 	3.12250225675825e-17 	1.11354596462609 	0.00833004835431839 	4.9710787239583
5 	2.922592641458 	3.81639164714898e-17 	1.11352122531256 	0.00850825355874822 	5.50770021643554
5 	2.93046990419394 	3.46944695195361e-17 	1.11349794710641 	0.0086902770924187 	6.11570777458366
5 	2.93806879722526 	2.77555756156289e-17 	1.11347649757925 	0.00886931204278154 	6.80159992245188
5 	2.94539915768638 	2.77555756156289e-17 	1.11345672007569 	0.00903694121720374 	7.57092968373042
5 	2.95247047508334 	2.77555756156289e-17 	1.11343833434919 	0.00918454372866641 	8.43174815168149
5 	2.9592919035784 	2.77555756156289e-17 	1.11342113821419 	0.0093038690916969 	9.39761525061915
5 	2.96587227384055 	2.77555756156289e-17 	1.11340501417995 	0.00938702303884743 	10.4906665495552
5 	2.97222010447726 	2.77555756156289e-17 	1.11338990399653 	0.00942605765832832 	11.7454915789777
5 	2.97834361306218 	2.77555756156289e-17 	1.11337579431705 	0.00941223021987498 	13.2149434711976
5 	2.98425072677325 	2.77555756156289e-17 	1.1133627121735 	0.0093348334197895 	14.9796850492112
5 	2.98994909265477 	2.77555756156289e-17 	1.11335072453298 	0.00917929216563008 	17.164870536179
5 	2.99544608751689 	2.77555756156289e-17 	1.11333993793545 	0.00892389763691832 	19.9715862452327
5 	3.00074882748522 	2.42861286636753e-17 	1.11333049402356 	0.00853423485741266 	23.7325866006865
5 	3.00586417721304 	2.08166817117217e-17 	1.11332255138328 	0.00795356378028072 	29.0309257931022
5 	3.01079875876789 	1.73472347597681e-17 	1.11331623826859 	0.00708736709753533 	36.9721013174217
5 	3.01555896020418 	2.08166817117217e-17 	1.11331160061818 	0.00578480151620943 	49.9192354754664
5 	3.02015094383281 	2.08166817117217e-17 	1.11330866126262 	0.00387162722550124 	74.2021962857665
5 	3.02458065419861 	1.38777878078145e-17 	1.11330710365678 	0.00163365999084983 	136.067204248112
5 	3.02885382577582 	1.38777878078145e-17 	1.11330629799052 	0.000323834129913182 	432.105828416435
5 	3.03297599039165 	1.21430643318376e-17 	1.11330588918609 	2.48579431892871e-05 	1716.38362205436
