1.00000000000453e-06 	1.00195556483898 	0 	0.0641131193070685 	-7.78103864747005e-05 	-1.60287066143971e-22
1.00000000000453e-06 	1.00593833258374 	0 	0.209683515542087 	0.000356748317227456 	-2.82742220561027e-22
1.00000000000453e-06 	1.01006700077429 	0 	0.36713263314583 	0.00211314751468046 	-1.54048564958212e-22
1.00000000000453e-06 	1.0143469141712 	0 	0.496205638445751 	0.00487252039759312 	5.93776319443377e-23
1.00000000000453e-06 	1.01878361332929 	0 	0.581967497298564 	0.00788494900517028 	4.80453851732427e-23
1.00000000000453e-06 	1.02338284177015 	-3.46944695195361e-18 	0.634711084977675 	0.0107809029397406 	-8.57584425100069e-23
1.00000000000453e-06 	1.02815055341735 	-6.93889390390723e-18 	0.667692010381509 	0.0134600748721744 	-2.71688911382623e-24
1.00000000000453e-06 	1.03309292030413 	-6.93889390390723e-18 	0.689519469861337 	0.0159157904048655 	8.03140742517235e-23
1.00000000000453e-06 	1.03821634056339 	-6.93889390390723e-18 	0.705023765300596 	0.0181815391826948 	9.3947222478787e-24
1.00000000000453e-06 	1.04352744671036 	-1.04083408558608e-17 	0.716821930645325 	0.0202942280815647 	-8.73372603469429e-23
1.00000000000453e-06 	1.04903311422874 	-1.04083408558608e-17 	0.72635872150497 	0.02228462921826 	-8.23820141732703e-23
1.00000000000453e-06 	1.05474047047132 	-6.93889390390723e-18 	0.734465770722304 	0.0241770738861612 	-2.58075690447268e-23
1.00000000000453e-06 	1.06065690388671 	-3.46944695195361e-18 	0.741644577169544 	0.0259905160705498 	3.19947145395289e-23
1.00000000000453e-06 	1.06679007358401 	-3.46944695195361e-18 	0.748211046297475 	0.027739694346823 	6.39921097901794e-23
1.00000000000453e-06 	1.07314791924792 	-6.93889390390723e-18 	0.754372024172901 	0.0294361212404288 	4.61814095272133e-23
1.00000000000453e-06 	1.07973867141705 	-3.46944695195361e-18 	0.760267609284489 	0.0310888333100612 	6.93010486165355e-16
1.00000000000453e-06 	1.08657086213875 	0 	0.765995554767774 	0.0327049353473829 	7.39953203039542e-16
1.00000000000453e-06 	1.09365333601424 	0 	0.771625895040226 	0.0342899919035104 	-5.99094231652217e-16
1.00000000000453e-06 	1.10099526164836 	3.46944695195361e-18 	0.7772100172765 	0.0358483098472505 	-6.46036959208408e-16
1.00000000000453e-06 	1.10860614351884 	6.93889390390723e-18 	0.782786457302599 	0.0373831434523061 	-1.77551000773363e-23
1.00000000000453e-06 	1.11649583428022 	3.46944695195361e-18 	0.788384698133074 	0.0388968443382392 	-6.06739125725657e-23
1.00000000000453e-06 	1.12467454751866 	6.93889390390723e-18 	0.794027712546309 	0.040390971943162 	-4.0894408857482e-23
1.00000000000453e-06 	1.13315287097387 	1.73472347597681e-17 	0.799733694585218 	0.0418663749689541 	1.8161949832816e-23
1.00000000000453e-06 	1.1419417802455 	2.08166817117217e-17 	0.805517256584405 	0.0433232515495034 	2.72305100058215e-24
1.00000000000453e-06 	1.15105265300152 	1.38777878078145e-17 	0.811390267526394 	0.0447611946581605 	-4.97004872311149e-23
1.00000000000453e-06 	1.1604972837072 	1.04083408558608e-17 	0.817362445679381 	0.0461792273994355 	-5.0884703188053e-23
1.00000000000453e-06 	1.17028789889366 	1.38777878078145e-17 	0.823441779097172 	0.0475758316375268 	-1.73539771078179e-23
1.00000000000453e-06 	1.1804371729856 	1.73472347597681e-17 	0.829634822095218 	0.048948972691633 	0
1.00000000000453e-06 	1.19095824470904 	2.42861286636753e-17 	0.835946900950226 	0.0502961215864401 	-3.07502654163658e-23
1.00000000000453e-06 	1.20186473410003 	2.42861286636753e-17 	0.842382254689107 	0.0516142765668246 	-6.15004983053843e-23
1.00000000000453e-06 	1.21317076013637 	2.08166817117217e-17 	0.848944130825967 	0.052899986744792 	-3.075023286135e-23
1.00000000000453e-06 	1.22489095901542 	2.08166817117217e-17 	0.855634849991571 	0.0541493807292305 	0
1.00000000000453e-06 	1.23704050310128 	2.08166817117217e-17 	0.8624558491536 	0.0553582026939373 	-1.48653968827783e-24
1.00000000000453e-06 	1.24963512056619 	2.42861286636753e-17 	0.869407710068063 	0.0565218581051199 	-2.97976877134845e-24
1.00000000000453e-06 	1.26269111575139 	2.77555756156289e-17 	0.876490177175637 	0.05763547085722 	-1.48656344157294e-24
1.00000000000453e-06 	1.27622539027388 	2.77555756156289e-17 	0.883702167226827 	0.0586939528437804 	0
1.00000000000453e-06 	1.29025546490643 	2.77555756156289e-17 	0.891041771417253 	0.0596920859543694 	0
1.00000000000453e-06 	1.30479950225895 	2.77555756156289e-17 	0.898506249793663 	0.060624615130205 	-6.76593713278731e-23
1.00000000000453e-06 	1.31987633029101 	3.12250225675825e-17 	0.906092017207415 	0.0614863495614036 	-6.47098541012092e-23
1.00000000000453e-06 	1.33550546668544 	3.81639164714898e-17 	0.913794619920992 	0.0622722677664008 	1.4549486603203e-22
1.00000000000453e-06 	1.35170714411495 	3.81639164714898e-17 	0.921608701552495 	0.0629776219523941 	2.86598575191948e-22
1.00000000000453e-06 	1.3685023364343 	3.81639164714898e-17 	0.929527956092569 	0.0635980374037852 	2.91048191753698e-22
1.00000000000453e-06 	1.38591278583198 	4.16333634234434e-17 	0.937545065621706 	0.064129601916296 	2.21873422793733e-22
1.00000000000453e-06 	1.40396103097652 	4.16333634234434e-17 	0.945651623040364 	0.0645689398934501 	7.48628430037962e-23
1.00000000000453e-06 	1.42267043619387 	3.81639164714898e-17 	0.953838043613231 	0.0649132682199832 	-3.18770401487807e-22
1.00000000000453e-06 	1.44206522171365 	3.12250225675825e-17 	0.962093469050135 	0.0651604337581095 	-6.37615299831311e-22
1.00000000000453e-06 	1.46217049502345 	3.12250225675825e-17 	0.970405664016707 	0.0653089324571037 	-3.18812011291632e-22
1.00000000000453e-06 	1.48301228337162 	2.77555756156289e-17 	0.978760900942254 	0.0653579086881219 	3.42602321936668e-22
1.00000000000453e-06 	1.50461756746086 	2.42861286636753e-17 	0.987143827997747 	0.0653071317505243 	8.6086642876102e-22
1.00000000000453e-06 	1.52701431637603 	2.77555756156289e-17 	0.995537318801471 	0.0651569452029612 	5.14162338576959e-22
1.00000000000453e-06 	1.55023152379144 	3.46944695195361e-17 	1.00392231023172 	0.0649081848944643 	-1.83665681507591e-22
1.00000000000453e-06 	1.57429924550461 	3.81639164714898e-17 	1.01227764419934 	0.0645620645884611 	-3.67922427246823e-22
1.00000000000453e-06 	1.59924863834497 	3.46944695195361e-17 	1.02057993750657 	0.064120033254344 	-3.76986316006509e-22
1.00000000000453e-06 	1.62511200050782 	4.16333634234434e-17 	1.02880351031713 	0.0635836128200783 	-3.85449690352098e-22
1.00000000000453e-06 	1.65192281336593 	4.5102810375397e-17 	1.03692040831604 	0.0629542301396886 	4.12833898197406e-22
1.00000000000453e-06 	1.67971578481283 	3.81639164714898e-17 	1.04490055240456 	0.0622330622779521 	1.41666502727313e-21
1.00000000000453e-06 	1.70852689419381 	3.81639164714898e-17 	1.05271203951515 	0.061420915268618 	8.06884211344637e-22
1.00000000000453e-06 	1.73839343888296 	4.16333634234434e-17 	1.06032160086996 	0.0605181531354523 	0
1.00000000000453e-06 	1.76935408256639 	4.5102810375397e-17 	1.06769520428262 	0.0595246905513376 	0
1.00000000000453e-06 	1.80144890529426 	4.85722573273506e-17 	1.07479876687694 	0.0584400580508022 	0
1.00000000000453e-06 	1.83471945536634 	4.85722573273506e-17 	1.08159891163547 	0.0572635333476236 	0
1.00000000000453e-06 	1.86920880311829 	4.5102810375397e-17 	1.08806364118367 	0.0559943566182032 	3.3779430707808e-24
1.00000000000453e-06 	1.9049615966783 	5.20417042793042e-17 	1.09416188708336 	0.0546320616755768 	6.65999373194002e-24
1.00000000000453e-06 	1.94202411976624 	5.8702771376512e-17 	1.09986109995918 	0.0531764395620206 	3.38028987048617e-24
1.00000000001227e-06 	1.98044435161019 	1.38777878078145e-17 	1.10512620383916 	0.0516278334622147 	0
1.00000000001227e-06 	2.02024009608346 	1.38777878078145e-17 	1.10988603253396 	0.0500024965118535 	0
1.00000000001227e-06 	2.06000503604194 	6.93889390390723e-18 	1.11401927297815 	0.0483495526860839 	0
1.00000000001227e-06 	2.09836474743797 	0 	1.11745790970326 	0.046719572038823 	0
1.00000000001227e-06 	2.13536888877258 	0 	1.12023594021085 	0.045131744495219 	0
1.00000000001227e-06 	2.17106536369585 	3.46944695195361e-18 	1.1224146854234 	0.0435891881849143 	0
1.00000000001227e-06 	2.20550038302045 	3.46944695195361e-18 	1.12404341181223 	0.0420936784290639 	0
1.00000000001227e-06 	2.23871852454379 	-6.93889390390723e-18 	1.12516098374052 	0.0406458591577083 	0
1.00000000001227e-06 	2.27076279075614 	-1.38777878078145e-17 	1.12579771388387 	0.0392454509754366 	0
1.00000000001227e-06 	2.30167466450941 	-1.38777878078145e-17 	1.12597707659705 	0.0378915103738601 	0
1.00000000001227e-06 	2.33149416271873 	-1.04083408558608e-17 	1.1257171956213 	0.0365826320394642 	0
1.00000000001227e-06 	2.36025988816627 	-1.04083408558608e-17 	1.12503210568897 	0.0353171062830251 	0
1.00000000001227e-06 	2.38800907947441 	-1.38777878078145e-17 	1.12393282464608 	0.0340930390025848 	0
1.00000000001227e-06 	2.41477765931296 	-1.38777878078145e-17 	1.12242828496514 	0.0329084392288786 	0
1.00000000001227e-06 	2.44060028090273 	-1.38777878078145e-17 	1.1205261678769 	0.0317612814052097 	0
1.00000000001227e-06 	2.46551037287587 	-1.38777878078145e-17 	1.11823366782371 	0.0306495497748871 	0
1.00000000001227e-06 	2.48954018255081 	-1.38777878078145e-17 	1.11555819588913 	0.0295712715800317 	0
1.00000000001227e-06 	2.512720817678 	-1.38777878078145e-17 	1.11250801254498 	0.0285245448768301 	0
1.00000000001227e-06 	2.53508228671037 	-1.38777878078145e-17 	1.10909276513042 	0.0275075654205361 	0
1.00000000001227e-06 	2.55665353765073 	-1.04083408558608e-17 	1.10532389476544 	0.0265186576870934 	0
1.00000000001227e-06 	2.57746249552637 	-1.04083408558608e-17 	1.10121486818262 	0.0255563235604984 	0
1.00000000001227e-06 	2.59753609853934 	-1.04083408558608e-17 	1.0967811751575 	0.0246193003378764 	0
1.00000000001227e-06 	2.6169003329393 	-6.93889390390723e-18 	1.09204000828176 	0.0237063899109106 	0
1.00000000001227e-06 	2.6355802666639 	-1.38777878078145e-17 	1.08700952258898 	0.0228170092879226 	0
1.00000000001227e-06 	2.6536000817905 	-2.08166817117217e-17 	1.0816980359759 	0.0219514382455651 	0
1.00000000001227e-06 	2.67098310584103 	-2.08166817117217e-17 	1.07607523584632 	0.0211087659751053 	0
1.00000000001227e-06 	2.68775184198057 	-2.77555756156289e-17 	1.0700700425767 	0.020286372551178 	0
1.00000000001227e-06 	2.7039279981488 	-3.46944695195361e-17 	1.06362507416341 	0.019483718211529 	0
1.00000000001227e-06 	2.71953251516198 	-3.46944695195361e-17 	1.05673180547358 	0.0187035059743547 	0
1.00000000001227e-06 	2.73458559382185 	-3.46944695195361e-17 	1.0494060223166 	0.0179475507952679 	0
1.00000000001227e-06 	2.74910672106653 	-3.46944695195361e-17 	1.04166203793776 	0.0172151805853037 	0
1.00000000001227e-06 	2.76311469519732 	-3.46944695195361e-17 	1.03351277146473 	0.0165045582369101 	0
1.00000000001227e-06 	2.776627650214 	-3.46944695195361e-17 	1.02498004785937 	0.0158132273595047 	0
1.00000000001227e-06 	2.78966307929018 	-3.46944695195361e-17 	1.0161055161546 	0.0151382929423756 	0
1.00000000001227e-06 	2.80223785741905 	-3.81639164714898e-17 	1.00695839092628 	0.014476347107225 	0
1.00000000001227e-06 	2.81436826325886 	-4.5102810375397e-17 	0.997638010332083 	0.0138232737438424 	0
1.00000000001227e-06 	2.82607000020648 	-4.85722573273506e-17 	0.988267775664063 	0.0131742039009592 	0
1.00000000001227e-06 	2.83735821672614 	-5.55111512312578e-17 	0.978975189729748 	0.0125242589031569 	0
1.00000000001227e-06 	2.8482475259599 	-6.24500451351651e-17 	0.969853724375632 	0.011871423335732 	0
1.00000000001227e-06 	2.85875202464506 	-6.24500451351651e-17 	0.960909663010665 	0.0112179675154951 	0
1.00000000001227e-06 	2.86888531136304 	-6.24500451351651e-17 	0.952054648821677 	0.0105676132487492 	0
1.00000000001227e-06 	2.87866050414343 	-6.24500451351651e-17 	0.943188415179027 	0.00992429816931037 	0
1.00000000001227e-06 	2.88809025744591 	-6.24500451351651e-17 	0.93426175164236 	0.00929141384190791 	0
1.00000000001227e-06 	2.89718677854204 	-6.24500451351651e-17 	0.925252228274887 	0.00866993763303293 	0
1.00000000001227e-06 	2.90596184331819 	-6.24500451351651e-17 	0.916133705760766 	0.00805986716414092 	0
1.00000000001227e-06 	2.91442681151997 	-6.59194920871187e-17 	0.906871449603692 	0.00746168350033601 	0
1.00000000001227e-06 	2.92259264145801 	-6.93889390390723e-17 	0.897420600460875 	0.00687600875781624 	0
1.00000000001227e-06 	2.93046990419395 	-7.28583859910259e-17 	0.887724117055955 	0.00630351627569606 	0
1.00000000001227e-06 	2.93806879722526 	-7.63278329429795e-17 	0.877709887882582 	0.00574494521002278 	0
1.00000000001227e-06 	2.94539915768639 	-7.28583859910259e-17 	0.867286642501749 	0.00520111290505173 	0
1.00000000001227e-06 	2.95247047508335 	-6.93889390390723e-17 	0.856338120365672 	0.00467292910470046 	0
1.00000000001227e-06 	2.9592919035784 	-6.93889390390723e-17 	0.844714677760399 	0.00416141847077345 	0
1.00000000001227e-06 	2.96587227384056 	-6.93889390390723e-17 	0.832221074526136 	0.00366775274084178 	0
1.00000000001227e-06 	2.97222010447726 	-7.28583859910259e-17 	0.818598476569604 	0.00319329529980152 	0
1.00000000001227e-06 	2.97834361306218 	-7.97972798949331e-17 	0.803497557472593 	0.00273965645742112 	0
1.00000000001227e-06 	2.98425072677325 	-7.97972798949331e-17 	0.786437664985613 	0.00230870719155665 	0
1.00000000001227e-06 	2.98994909265478 	-7.63278329429795e-17 	0.766743758533556 	0.00190254106136113 	0
1.00000000001227e-06 	2.99544608751689 	-7.63278329429795e-17 	0.743426397705303 	0.0015242683355627 	0
1.00000000001227e-06 	3.00074882748522 	-7.97972798949331e-17 	0.714928498258604 	0.00117839683567311 	0
1.00000000001227e-06 	3.00586417721304 	-8.67361737988404e-17 	0.67878192718662 	0.000870297455117453 	0
1.00000000001227e-06 	3.01079875876789 	-9.0205620750794e-17 	0.631357950486056 	0.000605957322352236 	0
1.00000000001227e-06 	3.01555896020418 	-9.0205620750794e-17 	0.56759631579029 	0.000389438209402173 	0
1.00000000001227e-06 	3.02015094383281 	-9.71445146547012e-17 	0.480925232805473 	0.000221354129472736 	0
1.00000000001227e-06 	3.02458065419862 	-1.00613961606655e-16 	0.36672430827134 	0.00010203821387979 	0
1.00000000001227e-06 	3.02885382577583 	-1.04083408558608e-16 	0.228976566573564 	3.20510890651823e-05 	0
