1.00000000000453e-06 	1.00195556483898 	0 	0.920009829533506 	0.000211853574999911 	1569.03718401761
1.00000000000453e-06 	1.00593833258374 	0 	0.92004216909533 	0.00165877829163479 	705.595699615943
1.00000000000453e-06 	1.01006700077429 	0 	0.920140069802011 	0.00521207007956144 	180.229902794306
1.00000000000453e-06 	1.0143469141712 	0 	0.920358319379896 	0.00973113245999344 	89.9294774871617
1.00000000000453e-06 	1.01878361332929 	0 	0.920727679719056 	0.0135992843904437 	55.4855387021266
1.00000000000453e-06 	1.02338284177015 	-3.46944695195361e-18 	0.921237679612689 	0.0166949549778325 	37.2400126767563
1.00000000000453e-06 	1.02815055341735 	-6.93889390390723e-18 	0.921864024883507 	0.0194314962402784 	26.772769463282
1.00000000000453e-06 	1.03309292030413 	-6.93889390390723e-18 	0.92258606924108 	0.0219458536803557 	20.420551559247
1.00000000000453e-06 	1.03821634056339 	-6.93889390390723e-18 	0.923388527538471 	0.0242581117176311 	16.31160141182
1.00000000000453e-06 	1.04352744671036 	-1.04083408558608e-17 	0.924261977863642 	0.0263746527754495 	13.4869447545575
1.00000000000453e-06 	1.04903311422874 	-1.04083408558608e-17 	0.925201517506221 	0.0283072431928504 	11.4434404094797
1.00000000000453e-06 	1.05474047047132 	-6.93889390390723e-18 	0.926204810048019 	0.0300713128554823 	9.90366515027888
1.00000000000453e-06 	1.06065690388671 	-3.46944695195361e-18 	0.927270852693078 	0.0316829194513707 	8.70565609617106
1.00000000000453e-06 	1.06679007358401 	-3.46944695195361e-18 	0.928399356279608 	0.0331571014428189 	7.7495889393335
1.00000000000453e-06 	1.07314791924792 	-6.93889390390723e-18 	0.929590411329421 	0.034507241777526 	6.97092144282925
1.00000000000453e-06 	1.07973867141705 	-3.46944695195361e-18 	0.930844292198069 	0.0357449408184042 	6.32617047088976
1.00000000000453e-06 	1.08657086213875 	0 	0.932161339512666 	0.0368801090046083 	5.78499411450504
1.00000000000453e-06 	1.09365333601424 	0 	0.933541887741488 	0.0379211380140231 	5.32557588750226
1.00000000000453e-06 	1.10099526164836 	3.46944695195361e-18 	0.934986218771919 	0.0388750866317202 	4.93182038708332
1.00000000000453e-06 	1.10860614351884 	6.93889390390723e-18 	0.936494531522687 	0.03974785485899 	4.59158593008569
1.00000000000453e-06 	1.11649583428022 	3.46944695195361e-18 	0.938066922590148 	0.0405443370687209 	4.29553401325692
1.00000000000453e-06 	1.12467454751866 	6.93889390390723e-18 	0.939703374878261 	0.0412685527069392 	4.03635851527481
1.00000000000453e-06 	1.13315287097387 	1.73472347597681e-17 	0.941403751574688 	0.0419237563480193 	3.80825595551717
1.00000000000453e-06 	1.1419417802455 	2.08166817117217e-17 	0.943167793395248 	0.0425125300542271 	3.60655301498331
1.00000000000453e-06 	1.15105265300152 	1.38777878078145e-17 	0.944995117807993 	0.043036861183614 	3.42743916650648
1.00000000000453e-06 	1.1604972837072 	1.04083408558608e-17 	0.946885219581243 	0.0434982087003093 	3.26777104826971
1.00000000000453e-06 	1.17028789889366 	1.38777878078145e-17 	0.948837472334618 	0.0438975607522489 	3.12492677676797
1.00000000000453e-06 	1.1804371729856 	1.73472347597681e-17 	0.950851130046084 	0.0442354859288194 	2.99669571793679
1.00000000000453e-06 	1.19095824470904 	2.42861286636753e-17 	0.952925326539605 	0.0445121802941291 	2.88119394435118
1.00000000000453e-06 	1.20186473410003 	2.42861286636753e-17 	0.955059071528249 	0.0447275119608499 	2.77679868805059
1.00000000000453e-06 	1.21317076013637 	2.08166817117217e-17 	0.957251242806792 	0.0448810647333855 	2.6820971112889
1.00000000000453e-06 	1.22489095901542 	2.08166817117217e-17 	0.959500574821236 	0.044972182220683 	2.59584603847042
1.00000000000453e-06 	1.23704050310128 	2.08166817117217e-17 	0.96180564411939 	0.0450000136665137 	2.51694021285391
1.00000000000453e-06 	1.24963512056619 	2.42861286636753e-17 	0.964164852289564 	0.0449635625390865 	2.44438730888162
1.00000000000453e-06 	1.26269111575139 	2.77555756156289e-17 	0.96657640727248 	0.0448617386786297 	2.37728841444625
1.00000000000453e-06 	1.27622539027388 	2.77555756156289e-17 	0.969038304136782 	0.0446934145242368 	2.31482304513865
1.00000000000453e-06 	1.29025546490643 	2.77555756156289e-17 	0.971548306555554 	0.0444574856230982 	2.25623799752283
1.00000000000453e-06 	1.30479950225895 	2.77555756156289e-17 	0.974103930321636 	0.0441529352531358 	2.20083951161909
1.00000000000453e-06 	1.31987633029101 	3.12250225675825e-17 	0.976702430273213 	0.0437789025564521 	2.14798830617146
1.00000000000453e-06 	1.33550546668544 	3.81639164714898e-17 	0.979340792119646 	0.0433347531222895 	2.09709708640921
1.00000000000453e-06 	1.35170714411495 	3.81639164714898e-17 	0.982015731081331 	0.0428201505856075 	2.04763012861811
1.00000000000453e-06 	1.3685023364343 	3.81639164714898e-17 	0.984723699247728 	0.0422351275420823 	1.99910453824504
1.00000000000453e-06 	1.38591278583198 	4.16333634234434e-17 	0.987460902405387 	0.0415801537532649 	1.95109274788498
1.00000000000453e-06 	1.40396103097652 	4.16333634234434e-17 	0.990223325825484 	0.0408561992472629 	1.90322576906059
1.00000000000453e-06 	1.42267043619387 	3.81639164714898e-17 	0.993006767783956 	0.0400647897262511 	1.85519665171343
1.00000000000453e-06 	1.44206522171365 	3.12250225675825e-17 	0.995806879113179 	0.0392080516490327 	1.8067635420589
1.00000000000453e-06 	1.46217049502345 	3.12250225675825e-17 	0.998619206769122 	0.0382887444687186 	1.75775171145116
1.00000000000453e-06 	1.48301228337162 	2.77555756156289e-17 	1.00143923900112 	0.0373102779967261 	1.70805402315518
1.00000000000453e-06 	1.50461756746086 	2.42861286636753e-17 	1.00426244932074 	0.0362767137278628 	1.65762950170249
1.00000000000453e-06 	1.52701431637603 	2.77555756156289e-17 	1.00708433640994 	0.0351927498464574 	1.60649989699124
1.00000000000453e-06 	1.55023152379144 	3.46944695195361e-17 	1.00990045764923 	0.0340636901682893 	1.55474432019629
1.00000000000453e-06 	1.57429924550461 	3.81639164714898e-17 	1.01270645514175 	0.032895397322201 	1.50249215253085
1.00000000000453e-06 	1.59924863834497 	3.46944695195361e-17 	1.01549807403445 	0.0316942299376093 	1.44991450959171
1.00000000000453e-06 	1.62511200050782 	4.16333634234434e-17 	1.01827117295358 	0.0304669623884009 	1.39721459522289
1.00000000000453e-06 	1.65192281336593 	4.5102810375397e-17 	1.02102172661981 	0.0292206841768491 	1.34461732439195
1.00000000000453e-06 	1.67971578481283 	3.81639164714898e-17 	1.02374582182371 	0.0279626748094359 	1.29235865471155
1.00000000000453e-06 	1.70852689419381 	3.81639164714898e-17 	1.02643964941552 	0.0267002494601569 	1.24067516123024
1.00000000000453e-06 	1.73839343888296 	4.16333634234434e-17 	1.02909949696004 	0.0254405730860048 	1.18979472659633
1.00000000000453e-06 	1.76935408256639 	4.5102810375397e-17 	1.03172175037225 	0.0241904541014784 	1.13993081082973
1.00000000000453e-06 	1.80144890529426 	4.85722573273506e-17 	1.03430291219473 	0.0229561549518462 	1.09128529811911
1.00000000000453e-06 	1.83471945536634 	4.85722573273506e-17 	1.03683963022141 	0.0217432476809439 	1.04406067751424
1.00000000000453e-06 	1.86920880311829 	4.5102810375397e-17 	1.03932877511574 	0.0205564563633919 	0.998468199402975
1.00000000000453e-06 	1.9049615966783 	5.20417042793042e-17 	1.04176758701505 	0.0193994193440644 	0.954722481822554
1.00000000000453e-06 	1.94202411976624 	5.8702771376512e-17 	1.04415319406042 	0.0182753926338819 	0.912946445442741
1.00000000001227e-06 	1.98044435161019 	1.38777878078145e-17 	1.04648173096257 	0.017188301929571 	0.873144201192594
1.00000000001227e-06 	2.02024009608346 	1.38777878078145e-17 	1.0487309883881 	0.0161472087499439 	0.835520470742389
1.00000000001227e-06 	2.06000503604194 	6.93889390390723e-18 	1.05084620088017 	0.0151713271281016 	0.800810199778623
1.00000000001227e-06 	2.09836474743797 	0 	1.05278502369429 	0.0142768771268732 	0.7699668168106
1.00000000001227e-06 	2.13536888877258 	0 	1.05455088739452 	0.0134643756234574 	0.743574162675506
1.00000000001227e-06 	2.17106536369585 	3.46944695195361e-18 	1.05616400822198 	0.0127266341673211 	0.721735496939121
1.00000000001227e-06 	2.20550038302045 	3.46944695195361e-18 	1.05764140544958 	0.012056552108898 	0.704325165038392
1.00000000001227e-06 	2.23871852454379 	-6.93889390390723e-18 	1.05899746921883 	0.0114482070614012 	0.691187104344154
1.00000000001227e-06 	2.27076279075614 	-1.38777878078145e-17 	1.06024450759995 	0.0108968176445788 	0.682182373206042
1.00000000001227e-06 	2.30167466450941 	-1.38777878078145e-17 	1.06139308976731 	0.0103984838860538 	0.677202042009144
1.00000000001227e-06 	2.33149416271873 	-1.04083408558608e-17 	1.06245234283174 	0.00994996538538564 	0.676174820022061
1.00000000001227e-06 	2.36025988816627 	-1.04083408558608e-17 	1.06343020341474 	0.00954850372719554 	0.679069743100499
1.00000000001227e-06 	2.38800907947441 	-1.38777878078145e-17 	1.0643336225889 	0.00919168197018907 	0.685894756167409
1.00000000001227e-06 	2.41477765931296 	-1.38777878078145e-17 	1.06516873328239 	0.00887731306939894 	0.696692516569936
1.00000000001227e-06 	2.44060028090273 	-1.38777878078145e-17 	1.06594098808324 	0.00860335002481131 	0.711534484797586
1.00000000001227e-06 	2.46551037287587 	-1.38777878078145e-17 	1.06665527282744 	0.00836781266853838 	0.730513952198826
1.00000000001227e-06 	2.48954018255081 	-1.38777878078145e-17 	1.06731599951795 	0.00816872864452388 	0.753738352824405
1.00000000001227e-06 	2.512720817678 	-1.38777878078145e-17 	1.06792718093609 	0.00800408868364327 	0.78132109174338
1.00000000001227e-06 	2.53508228671037 	-1.38777878078145e-17 	1.06849248878832 	0.00787181821481161 	0.813373214037764
1.00000000001227e-06 	2.55665353765073 	-1.04083408558608e-17 	1.06901530013293 	0.00776976826100267 	0.849995579362314
1.00000000001227e-06 	2.57746249552637 	-1.04083408558608e-17 	1.06949874068005 	0.00769572814293068 	0.891272880813309
1.00000000001227e-06 	2.59753609853934 	-1.04083408558608e-17 	1.06994568869964 	0.00764746046602186 	0.937271921716092
1.00000000001227e-06 	2.6169003329393 	-6.93889390390723e-18 	1.07035864410618 	0.00762275462413879 	0.988047931742186
1.00000000001227e-06 	2.6355802666639 	-1.38777878078145e-17 	1.07074044652816 	0.00761949176026897 	1.04366442930448
1.00000000001227e-06 	2.6536000817905 	-2.08166817117217e-17 	1.07109549456712 	0.00763569411425482 	1.10432763052647
1.00000000001227e-06 	2.67098310584103 	-2.08166817117217e-17 	1.07142874670826 	0.0076696398879369 	1.170696853762
1.00000000001227e-06 	2.68775184198057 	-2.77555756156289e-17 	1.07174268778049 	0.00771997917506438 	1.24389422414145
1.00000000001227e-06 	2.7039279981488 	-3.46944695195361e-17 	1.07203596048506 	0.00778533184461039 	1.32491281972512
1.00000000001227e-06 	2.71953251516198 	-3.46944695195361e-17 	1.07230626821903 	0.0078636607996324 	1.41422068762429
1.00000000001227e-06 	2.73458559382185 	-3.46944695195361e-17 	1.07255359556192 	0.00795223297309252 	1.51198223852267
1.00000000001227e-06 	2.74910672106653 	-3.46944695195361e-17 	1.07277949550594 	0.00804781214116825 	1.61826534951104
1.00000000001227e-06 	2.76311469519732 	-3.46944695195361e-17 	1.0729854360905 	0.00814663100178392 	1.73294979000691
1.00000000001227e-06 	2.776627650214 	-3.46944695195361e-17 	1.07317247667887 	0.008244332647846 	1.85554242655572
1.00000000001227e-06 	2.78966307929018 	-3.46944695195361e-17 	1.07334132760156 	0.00833607429145563 	1.98504376109147
1.00000000001227e-06 	2.80223785741905 	-3.81639164714898e-17 	1.07349242206223 	0.008416892279204 	2.11993817434476
1.00000000001227e-06 	2.81436826325886 	-4.5102810375397e-17 	1.07362605250314 	0.00848233115815348 	2.25834252209475
1.00000000001227e-06 	2.82607000020648 	-4.85722573273506e-17 	1.07374277544645 	0.0085292249004508 	2.39833066919761
1.00000000001227e-06 	2.83735821672614 	-5.55111512312578e-17 	1.07384450959761 	0.00855635340552107 	2.53842856427335
1.00000000001227e-06 	2.8482475259599 	-6.24500451351651e-17 	1.07393654823237 	0.00856454492096191 	2.67824442257247
1.00000000001227e-06 	2.85875202464506 	-6.24500451351651e-17 	1.07402674571708 	0.0085558334712999 	2.81916908869095
1.00000000001227e-06 	2.86888531136304 	-6.24500451351651e-17 	1.07411896266899 	0.00853228512174934 	2.96436801195305
1.00000000001227e-06 	2.87866050414343 	-6.24500451351651e-17 	1.07421009485208 	0.00849544144805614 	3.11749996517024
1.00000000001227e-06 	2.88809025744591 	-6.24500451351651e-17 	1.07429613254918 	0.00844633226039285 	3.28179882613447
1.00000000001227e-06 	2.89718677854204 	-6.24500451351651e-17 	1.07437634550777 	0.00838576465490873 	3.46055396731211
1.00000000001227e-06 	2.90596184331819 	-6.24500451351651e-17 	1.0744514294979 	0.00831453607436339 	3.65776271614485
1.00000000001227e-06 	2.91442681151997 	-6.59194920871187e-17 	1.07452192508901 	0.00823343550259137 	3.87843491440244
1.00000000001227e-06 	2.92259264145801 	-6.93889390390723e-17 	1.07458823814206 	0.00814321718688056 	4.1289146967876
1.00000000001227e-06 	2.93046990419395 	-7.28583859910259e-17 	1.07465071309202 	0.00804457452332608 	4.41733276270314
1.00000000001227e-06 	2.93806879722526 	-7.63278329429795e-17 	1.07470963300224 	0.0079381137440914 	4.75425597175467
1.00000000001227e-06 	2.94539915768639 	-7.28583859910259e-17 	1.07476521387342 	0.00782432364178585 	5.15363493607445
1.00000000001227e-06 	2.95247047508335 	-6.93889390390723e-17 	1.07481760197289 	0.00770353388288922 	5.63420850643851
1.00000000001227e-06 	2.9592919035784 	-6.93889390390723e-17 	1.07486687179666 	0.0075758481884254 	6.22162187816987
1.00000000001227e-06 	2.96587227384056 	-6.93889390390723e-17 	1.07491302508498 	0.00744102679935654 	6.95168207011948
1.00000000001227e-06 	2.97222010447726 	-7.28583859910259e-17 	1.07495599241102 	0.00729826987210959 	7.87546638854044
1.00000000001227e-06 	2.97834361306218 	-7.97972798949331e-17 	1.07499563568438 	0.00714580964025821 	9.06752465376908
1.00000000001227e-06 	2.98425072677325 	-7.97972798949331e-17 	1.07503174474792 	0.00698013591915273 	10.6393988163285
1.00000000001227e-06 	2.98994909265478 	-7.63278329429795e-17 	1.07506407578084 	0.00679452764924982 	12.7626294759595
1.00000000001227e-06 	2.99544608751689 	-7.63278329429795e-17 	1.07509259565014 	0.00657557574182626 	15.7110769554644
1.00000000001227e-06 	3.00074882748522 	-7.97972798949331e-17 	1.07511741214692 	0.00629478715441516 	19.9410683852451
1.00000000001227e-06 	3.00586417721304 	-8.67361737988404e-17 	1.07513810941438 	0.00589603443947168 	26.2221071381526
1.00000000001227e-06 	3.01079875876789 	-9.0205620750794e-17 	1.0751539497393 	0.00528234157539992 	35.8716773229191
1.00000000001227e-06 	3.01555896020418 	-9.0205620750794e-17 	1.07516483902566 	0.00431431018422972 	51.514673567777
1.00000000001227e-06 	3.02015094383281 	-9.71445146547012e-17 	1.07517149447201 	0.00290870196684168 	80.8591081904136
1.00000000001227e-06 	3.02458065419862 	-1.00613961606655e-16 	1.07517513542832 	0.00139051408628651 	163.220556323215
1.00000000001227e-06 	3.02885382577583 	-1.04083408558608e-16 	1.07517703203004 	0.00038930343299649 	654.978593420015
