8 	0.451351328258348 	2.42861286636753e-17 	1.22789794621969 	9.89204038946001e-05 	1071.80324404042
8 	0.457856884620643 	2.08166817117217e-17 	1.22772266909472 	0.00101113690050148 	296.110165931553
8 	0.464597494115106 	2.42861286636753e-17 	1.22749251707662 	0.00411513890766199 	75.1829151380784
8 	0.471581531993148 	2.42861286636753e-17 	1.22716992464955 	0.00817194624709786 	32.2869116511216
8 	0.478817663648092 	2.08166817117217e-17 	1.22671795980099 	0.0115827211397831 	18.7123407636065
8 	0.486314854098318 	2.25514051876985e-17 	1.22615223178369 	0.0142782381065439 	12.8915507818677
8 	0.49408237774287 	1.56125112837913e-17 	1.22549921117738 	0.0164997694308055 	9.78953580266867
8 	0.502129828395036 	1.04083408558608e-17 	1.22477308333224 	0.0184121569025416 	7.88850821512407
8 	0.510467129599323 	2.08166817117217e-17 	1.22398073359028 	0.0201122404932263 	6.61285102294437
8 	0.519104545237329 	2.08166817117217e-17 	1.22312696175507 	0.0216591610802326 	5.70206459487521
8 	0.528052690427915 	1.73472347597681e-17 	1.22221561156713 	0.0230911390088617 	5.02222890013284
8 	0.537322542727032 	2.08166817117217e-17 	1.22124980821906 	0.0244341257632733 	4.49774870605573
8 	0.546925453632554 	1.90819582357449e-17 	1.22023221742738 	0.0257064532749439 	4.0828245018731
8 	0.556873160399407 	1.47451495458029e-17 	1.21916523709343 	0.0269214737993957 	3.74813952011499
8 	0.567177798170198 	1.82145964977565e-17 	1.2180511331465 	0.0280891375314484 	3.47408937561854
8 	0.577851912426569 	2.25514051876985e-17 	1.21689228181886 	0.0292169781287948 	3.24709438681554
8 	0.58890847176635 	2.51534904016637e-17 	1.21569118947688 	0.0303107522460582 	3.05747574202058
8 	0.600360881011604 	2.94902990916057e-17 	1.21444799156778 	0.0313748613846117 	2.89817406324129
8 	0.612222994652597 	3.12250225675825e-17 	1.21315858461873 	0.0324126229381629 	2.7639430254028
8 	0.624509130632625 	2.86229373536173e-17 	1.21185228503467 	0.0334267498876804 	2.65079884695057
8 	0.637234084478675 	2.73218947466347e-17 	1.21064113216949 	0.0344249112370854 	2.55507502427018
8 	0.65041314378278 	2.77555756156289e-17 	1.20959245337418 	0.0354281395940349 	2.47268727794327
8 	0.664062103038993 	2.86229373536173e-17 	1.2085923112318 	0.036453920169916 	2.40105814186493
8 	0.678197278840822 	2.57226965422186e-17 	1.2075269380423 	0.0375017838592665 	2.33958632615554
8 	0.692835525444093 	2.52890156732244e-17 	1.20637983967735 	0.0385682537953995 	2.28798197122817
8 	0.707994250700163 	2.77555756156289e-17 	1.20514765801021 	0.0396488868937708 	2.24584658428744
8 	0.723691432364531 	2.42861286636753e-17 	1.2038400526702 	0.0407375475208341 	2.21255099424149
8 	0.739945634786034 	2.08166817117217e-17 	1.20245185178089 	0.0418273803408347 	2.1875503600573
8 	0.756776025981913 	2.08166817117217e-17 	1.20097914098098 	0.0429105078372175 	2.17021937798498
8 	0.77420239510431 	2.08166817117217e-17 	1.19941810090715 	0.0439779881958438 	2.15984683542243
8 	0.792245170304006 	2.42861286636753e-17 	1.19776498022147 	0.0450197957366083 	2.15563289263649
8 	0.810925436997537 	2.42861286636753e-17 	1.19601629341008 	0.046024845481478 	2.15668933036784
8 	0.830264956544259 	2.42861286636753e-17 	1.19416893982932 	0.0469810637405326 	2.16204386532486
8 	0.850286185340416 	2.08166817117217e-17 	1.19222034710375 	0.0478755118262206 	2.17064923100847
8 	0.871012294337907 	1.04083408558608e-17 	1.1901686659358 	0.0486945650044699 	2.18139726313368
8 	0.892467188996067 	3.46944695195361e-18 	1.1880129984713 	0.0494241401574571 	2.19313756641252
8 	0.914675529675727 	-3.46944695195361e-18 	1.18575364257866 	0.0500499579622169 	2.20469954623121
8 	0.93766275248567 	-3.46944695195361e-18 	1.18339233105819 	0.0505578205613599 	2.21491590732182
8.00000000000001 	0.961455090592773 	0 	1.18093244034913 	0.0509338860365299 	2.22264543653399
8.00000000000001 	0.986079596008391 	3.46944695195361e-18 	1.1783791437342 	0.0511649279964038 	2.22679322052965
8.00000000000001 	1.01156416186494 	0 	1.17573948896788 	0.0512385817426085 	2.2263274551175
8.00000000000001 	1.03793754519838 	-6.93889390390723e-18 	1.17302238801409 	0.0511435950342606 	2.22029350722103
8.00000000000001 	1.06522939025402 	-6.93889390390723e-18 	1.1702385152449 	0.0508701170138523 	2.20782751555925
8.00000000000001 	1.09347025233532 	-1.73472347597681e-17 	1.16740011798464 	0.0504100683531723 	2.188173077443
8.00000000000001 	1.12269162221744 	-2.42861286636753e-17 	1.16452074809135 	0.0497576346066868 	2.16070499917359
8 	1.15292595115017 	-1.38777878078145e-17 	1.1616149251503 	0.0489099098707502 	2.12496333795423
8 	1.18420667647759 	-3.46944695195361e-18 	1.15869774270882 	0.0478676874802171 	2.08069885859762
8.00000000000001 	1.20932909530118 	-6.07153216591882e-18 	1.15642390851201 	0.0469275765977326 	2.04046261318489
8.00000000000001 	1.2257861591868 	-1.64798730217797e-17 	1.15496939704387 	0.0462667244131377 	2.01202107594683
8 	1.25005321751835 	-1.38777878078145e-17 	1.1528857343201 	0.0452312497549322 	1.96719506935978
8 	1.28469102414858 	-1.04083408558608e-17 	1.15001926441653 	0.043664015430891 	1.89895928159381
8 	1.32051868198682 	-1.38777878078145e-17 	1.14719848381475 	0.0419571254383274 	1.82426109788998
8.00000000000001 	1.3575749113027 	-1.73472347597681e-17 	1.14443527196257 	0.0401394318379533 	1.74451780974223
8.00000000000001 	1.39589958614844 	-1.73472347597681e-17 	1.14174013038112 	0.0382446657251145 	1.6614257549257
8.00000000000001 	1.43553376564931 	-1.21430643318376e-17 	1.13912230772328 	0.0363092664643333 	1.57680868212469
8.00000000000001 	1.4765197263157 	-1.38777878078145e-17 	1.13659001569002 	0.0343693800391073 	1.49241436997958
8.00000000000001 	1.51890099544909 	-1.38777878078145e-17 	1.13415057238092 	0.0324575169216979 	1.40970518751572
8.00000000000001 	1.56272238572048 	-8.67361737988404e-18 	1.13181032843443 	0.0305996269925117 	1.32970876122444
8.00000000000001 	1.60803003100718 	-1.38777878078145e-17 	1.12957435179059 	0.0288133388161634 	1.25298447639506
8.00000000000001 	1.65487142358089 	-1.38777878078145e-17 	1.12744593668331 	0.0271077419839453 	1.17971400973225
8.00000000000001 	1.70329545274807 	-6.93889390390723e-18 	1.12542601442587 	0.0254846227542902 	1.1098780543695
8 	1.75335244505158 	-8.45677694538693e-18 	1.12351260743627 	0.0239404664379764 	1.04341556849038
8 	1.80509420615116 	-4.98732999343332e-18 	1.12169665673797 	0.0224694117844453 	0.980339599843343
8.00000000000001 	1.85857406450892 	-3.46944695195361e-18 	1.11996522910539 	0.0210666511943973 	0.920942132537028
8.00000000000001 	1.91384691701537 	-6.93889390390723e-18 	1.11833610872044 	0.019722315969644 	0.864531892131672
8.00000000000001 	1.97096927670054 	-1.21430643318376e-17 	1.11683858403814 	0.0184520304004884 	0.813486161888125
8 	2.02024009608346 	1.38777878078145e-17 	1.11566380925317 	0.0174277310223602 	0.776288486653053
8 	2.06000503604194 	2.08166817117217e-17 	1.11475542808184 	0.0166227432084212 	0.749950148099821
8 	2.09836474743796 	2.08166817117217e-17 	1.11398985843112 	0.0158835561652064 	0.728303202302558
8 	2.13536888877258 	1.38777878078145e-17 	1.11331572472375 	0.0151902252595638 	0.710263885890737
8 	2.17106536369585 	2.08166817117217e-17 	1.11271729472158 	0.0145382761646798 	0.695423719363997
8 	2.20550038302044 	2.77555756156289e-17 	1.11218685147309 	0.0139245751636131 	0.683505221654429
8 	2.23871852454378 	2.77555756156289e-17 	1.11171667335586 	0.0133467902473728 	0.674321210682916
8 	2.27076279075613 	2.77555756156289e-17 	1.11129987296162 	0.0128030655640328 	0.667748410699948
8 	2.30167466450941 	2.77555756156289e-17 	1.11093048951588 	0.0122918258663472 	0.663710821437581
8 	2.33149416271872 	2.77555756156289e-17 	1.11060329087804 	0.0118116684263397 	0.662169903163991
8 	2.36025988816626 	2.08166817117217e-17 	1.11031365334292 	0.0113613084659319 	0.663119150501592
8 	2.38800907947441 	1.38777878078145e-17 	1.11005747612782 	0.0109395552659517 	0.666581392912448
8 	2.41477765931295 	1.38777878078145e-17 	1.10983111006826 	0.0105453047772652 	0.672607791445567
8 	2.44060028090272 	1.38777878078145e-17 	1.10963129876201 	0.0101775401760886 	0.681277919385838
8 	2.46551037287586 	1.73472347597681e-17 	1.10945513003926 	0.00983533534869795 	0.692700569376086
8 	2.48954018255081 	2.08166817117217e-17 	1.1092999955981 	0.00951785846833722 	0.707015074853961
8 	2.512720817678 	1.73472347597681e-17 	1.10916355719481 	0.00922437411636626 	0.724393008953742
8 	2.53508228671037 	1.38777878078145e-17 	1.10904371811975 	0.00895424312768681 	0.745040155915125
8 	2.55665353765073 	1.38777878078145e-17 	1.10893859893202 	0.00870691972418109 	0.769198654878861
8 	2.57746249552636 	1.38777878078145e-17 	1.10884651660035 	0.00848194568164748 	0.797149203550252
8 	2.59753609853934 	1.38777878078145e-17 	1.10876596636368 	0.00827894134906292 	0.829213185788407
8 	2.61690033293929 	1.38777878078145e-17 	1.10869560574131 	0.00809759336716549 	0.865754557566538
8 	2.63558026666389 	1.73472347597681e-17 	1.10863424024603 	0.00793763895976083 	0.907181294855737
8 	2.65360008179049 	2.42861286636753e-17 	1.10858081043107 	0.00779884672695441 	0.953946180889361
8 	2.67098310584102 	2.77555756156289e-17 	1.10853437999668 	0.00768099397561062 	1.00654669667594
8 	2.68775184198056 	2.42861286636753e-17 	1.10849412473318 	0.00758384079092737 	1.06552378699973
8 	2.70392799814879 	2.08166817117217e-17 	1.10845932215078 	0.00750710128507482 	1.13145931489635
8 	2.71953251516198 	2.42861286636753e-17 	1.10842934168301 	0.00745041274361125 	1.20497210078606
8 	2.73458559382185 	2.08166817117217e-17 	1.10840363540681 	0.00741330370308298 	1.28671257546721
8 	2.74910672106653 	2.08166817117217e-17 	1.10838172924807 	0.00739516229788271 	1.37735626125131
7.99999999999999 	2.76311469519732 	2.77555756156289e-17 	1.10836321467754 	0.00739520646736496 	1.47759652715722
8 	2.776627650214 	2.77555756156289e-17 	1.10834774091202 	0.00741245777352039 	1.58813732817925
8 	2.78966307929018 	3.12250225675825e-17 	1.10833500764926 	0.00744572061354584 	1.70968691382797
8 	2.80223785741904 	3.81639164714898e-17 	1.10832475835454 	0.00749356850873078 	1.84295375466721
8 	2.81436826325886 	4.16333634234434e-17 	1.10831677411621 	0.00755433892058508 	1.98864617347779
8 	2.82607000020647 	3.46944695195361e-17 	1.10831086808105 	0.00762613771368467 	2.1474773898634
8 	2.83735821672613 	2.77555756156289e-17 	1.10830688048812 	0.00770685398104391 	2.32017794181907
8 	2.8482475259599 	2.77555756156289e-17 	1.108304674359 	0.0077941854873762 	2.5075178281048
8 	2.85875202464506 	2.77555756156289e-17 	1.10830413190306 	0.00788567445811735 	2.71034134300655
8 	2.86888531136304 	2.77555756156289e-17 	1.10830515175943 	0.00797875281274839 	2.92961855263913
8 	2.87866050414343 	2.77555756156289e-17 	1.10830764705879 	0.00807079517494123 	3.16651870414037
8 	2.88809025744591 	3.46944695195361e-17 	1.108311544259 	0.00815917708420707 	3.42251245684634
8 	2.89718677854204 	4.16333634234434e-17 	1.1083167823809 	0.00824133485403053 	3.69951154178626
8 	2.90596184331818 	4.5102810375397e-17 	1.10832331223473 	0.0083148226028027 	4.00005641470784
8 	2.91442681151997 	4.5102810375397e-17 	1.10833109507739 	0.00837736128950553 	4.32756543243152
8 	2.922592641458 	4.5102810375397e-17 	1.10834010039176 	0.00842687420563466 	4.68666460827025
8 	2.93046990419394 	5.20417042793042e-17 	1.10835030264215 	0.0084615032883048 	5.08362721424563
8 	2.93806879722526 	5.20417042793042e-17 	1.10836167701635 	0.008479600678721 	5.52697007320341
8 	2.94539915768638 	4.5102810375397e-17 	1.10837419428696 	0.00847968971795881 	6.02828302058653
8 	2.95247047508334 	3.81639164714898e-17 	1.10838781490174 	0.00846038816000833 	6.60341760644733
8 	2.9592919035784 	3.46944695195361e-17 	1.10840248232727 	0.00842028235618631 	7.27424448175821
8 	2.96587227384055 	3.46944695195361e-17 	1.10841811572368 	0.00835773222146472 	8.07133297755138
8 	2.97222010447726 	3.46944695195361e-17 	1.10843460173084 	0.00827056870827118 	9.03816384959664
8 	2.97834361306218 	3.46944695195361e-17 	1.10845178580514 	0.00815560982703892 	10.2379633135574
8 	2.98425072677325 	3.12250225675825e-17 	1.1084694619994 	0.00800785058388942 	11.7651667779333
8 	2.98994909265477 	2.42861286636753e-17 	1.10848735611854 	0.00781903980458281 	13.7653761021002
8 	2.99544608751689 	2.42861286636753e-17 	1.1085051129416 	0.00757506701840735 	16.4716078202336
8 	3.00074882748522 	2.77555756156289e-17 	1.10852238662471 	0.00725072694262112 	20.273864665226
8 	3.00586417721304 	2.77555756156289e-17 	1.10853895009139 	0.0067971841057652 	25.8619696627343
8 	3.01079875876789 	2.77555756156289e-17 	1.10855405853099 	0.00612011114469708 	34.5171400891632
8 	3.01555896020418 	2.42861286636753e-17 	1.10856653826972 	0.00506576810973843 	48.7753683651018
8 	3.02015094383281 	2.42861286636753e-17 	1.10857548015132 	0.00345689700026242 	74.9292463242534
8 	3.02458065419861 	2.77555756156289e-17 	1.108580835218 	0.00149353377861831 	138.622253549038
8 	3.02885382577582 	2.08166817117217e-17 	1.10858391534176 	0.000300610153586566 	434.665618278672
8 	3.03297599039165 	1.21430643318376e-17 	1.10858580445656 	2.32705595801124e-05 	1716.62637331609
