6 	0.00391112967796271 	0 	0.031527214493148 	-5.32931799074075e-05 	1.22186300764823e-16
6 	0.0118766651674914 	0 	0.0907706351238524 	-9.97832157767973e-05 	-2.53217895611885e-16
6 	0.020134001548576 	-1.38777878078145e-17 	0.126285013741119 	-0.000310724355924068 	-3.85539705122285e-16
6 	0.0286938283423949 	-3.12250225675825e-17 	0.144973658696644 	-0.00058048395459057 	-5.50536005921409e-23
6 	0.0375672266585909 	-3.12250225675825e-17 	0.156544677231909 	-0.000881206330077132 	1.07772364563989e-20
6 	0.0467656835403032 	-3.12250225675825e-17 	0.16510293968779 	-0.00121339487336802 	-1.78487330940399e-20
6 	0.0563011068347007 	-3.46944695195361e-17 	0.172152811179309 	-0.00157118073313107 	7.49594068901807e-21
6 	0.0661858406082649 	-3.12250225675825e-17 	0.178344827819978 	-0.00195044225133179 	-4.46245259071762e-17
6 	0.0764326811267816 	-3.46944695195361e-17 	0.184010951175737 	-0.00234940517018637 	-1.76592779132818e-16
6 	0.0870548934207257 	-3.81639164714898e-17 	0.189342866047795 	-0.00276718130555042 	1.79135988339571e-16
6 	0.0980662284574838 	-3.12250225675825e-17 	0.194462095882274 	-0.00320322153088947 	2.46936005669007e-17
6 	0.109480940942647 	-3.12250225675825e-17 	0.199451622898604 	-0.00365716925704783 	-1.98166161857856e-17
6 	0.121313807773417 	-3.81639164714898e-17 	0.204371738862212 	-0.0041287867154986 	1.48045329864423e-22
6 	0.133580147168011 	-4.16333634234434e-17 	0.209268676633046 	-0.00461790240753028 	-1.58128161549366e-21
6 	0.146295838495839 	-4.16333634234434e-17 	0.214179633938863 	-0.00512437405513933 	-3.46874593283704e-21
6 	0.159477342834115 	-4.16333634234434e-17 	0.219135863216571 	-0.00564806109689814 	3.76986307019937e-21
6 	0.173141724277517 	-4.16333634234434e-17 	0.224164663841249 	-0.00618880219010393 	-1.31088698250244e-21
6 	0.18730667202848 	-4.5102810375397e-17 	0.229290721166845 	-0.00674639518511718 	-6.90130064360145e-21
6 	0.201990523296728 	-4.5102810375397e-17 	0.234537040975645 	-0.00732057808817612 	-3.49022683515105e-21
6 	0.217212287037676 	-5.20417042793042e-17 	0.239925624490892 	-0.00791101002039244 	-6.78841292427779e-22
6 	0.232991668560441 	-5.89805981832114e-17 	0.245477971773591 	-0.00851725145430255 	2.37368141450503e-21
6 	0.249349095037321 	-5.20417042793042e-17 	0.251215468160475 	-0.00913874317803313 	-1.53295114763344e-21
6 	0.266305741947753 	-5.20417042793042e-17 	0.25715968844406 	-0.00977478354520633 	-1.87282012587959e-21
6 	0.283883560490999 	-4.85722573273506e-17 	0.263332641014499 	-0.0104245036440371 	-4.32085431352254e-21
6 	0.30210530600303 	-4.85722573273506e-17 	0.269756966052737 	-0.0110868400804418 	-1.96171223000732e-22
6 	0.320994567414414 	-4.85722573273506e-17 	0.276456096319652 	-0.0117605051305434 	2.57305471208529e-21
6 	0.340575797787321 	-4.16333634234434e-17 	0.28345438509397 	-0.0124439540882833 	4.0821036790972e-21
6 	0.360874345971201 	-4.16333634234434e-17 	0.29077720275058 	-0.0131353497236493 	3.91821563405596e-21
6 	0.381916489418091 	-4.85722573273506e-17 	0.298451000955574 	-0.0138325238862184 	7.10169648646667e-21
6 	0.403729468200046 	-5.20417042793042e-17 	0.306503341243802 	-0.014532936447908 	2.74894631040267e-21
6 	0.426341520272733 	-4.85722573273506e-17 	0.314962882689676 	-0.0152336319896389 	-1.39147149810462e-21
6 	0.441285719951471 	-4.16333634234434e-17 	0.320611151102835 	-0.015683615741281 	-2.83081105037151e-21
6 	0.453216730116548 	-3.81639164714898e-17 	0.325170076025341 	-0.0160313062597163 	-2.91699381776751e-21
6 	0.474081006202548 	-4.5102810375397e-17 	0.333214398066554 	-0.0166218537701393 	-1.26154253225218e-16
6 	0.499270241132363 	-4.5102810375397e-17 	0.34306852347029 	-0.0173011302796799 	-1.56627255189135e-16
6 	0.525382231502763 	-2.77555756156289e-17 	0.353452007358143 	-0.0179640125057884 	1.70583490713173e-16
6 	0.552450780547767 	-1.04083408558608e-17 	0.364396719402068 	-0.0186048532100344 	1.13615194632653e-16
6 	0.58051092981285 	-3.46944695195361e-18 	0.375934195678635 	-0.0192173548114386 	8.47047241254594e-21
6 	0.609599004517911 	6.93889390390723e-18 	0.388095053331209 	-0.0197945546089373 	4.50713121581239e-21
6 	0.639752660582033 	1.38777878078145e-17 	0.40090826655008 	-0.0203288277527009 	2.13100333105618e-21
6 	0.671010933370887 	1.04083408558608e-17 	0.414400291130844 	-0.020811913889185 	-1.69068725321805e-20
6 	0.703414288229901 	1.38777878078145e-17 	0.428594028948531 	-0.0212349742556402 	-3.91615219314761e-21
6 	0.737004672868607 	2.08166817117217e-17 	0.443507630338265 	-0.021588686670718 	1.84842785066249e-21
6 	0.771825571663977 	2.08166817117217e-17 	0.459153142204557 	-0.0218633861937385 	-1.7490204234298e-21
6 	0.807922061953054 	2.25514051876985e-17 	0.475535023218826 	-0.0220492589905256 	-6.4609259774862e-21
6 	0.845340872387743 	2.77555756156289e-17 	0.492648565027219 	-0.0221365958843737 	3.33002799158573e-17
6 	0.884130443427309 	2.94902990916057e-17 	0.510478279894129 	-0.0221161098872822 	2.87383372812015e-17
6 	0.924340990046898 	3.12250225675825e-17 	0.528996339916593 	-0.0219793183945416 	-2.96544369948485e-17
6 	0.966024566743242 	3.46944695195361e-17 	0.548161179193432 	-0.0217189854288303 	-2.46886640062878e-17
6 	1.00923513492173 	3.20923843055709e-17 	0.56791639525527 	-0.0213296122108297 	3.34954679478575e-20
6 	1.05402863275205 	3.03576608295941e-17 	0.588190105436417 	-0.0208079555208917 	-3.92113446973388e-20
6 	1.10046304758287 	2.90566182226115e-17 	0.608894922167793 	-0.0201535432746457 	-2.16603373980991e-21
6 	1.14859849100923 	2.47198095326695e-17 	0.629928701882512 	-0.0193691464505728 	-1.49112233517417e-21
6 	1.19849727668994 	1.94072188874905e-17 	0.651176188630615 	-0.0184611576119851 	9.00231656892694e-20
6 	1.25022400101563 	1.85398571495021e-17 	0.672511314813426 	-0.0174385502482584 	-9.38993240530847e-20
6 	1.30384562673186 	2.08166817117217e-17 	0.693794814180979 	-0.0163101718818089 	8.48505253977301e-20
6 	1.35943156962566 	2.08166817117217e-17 	0.714888592058844 	-0.0151017887563932 	-7.9278857138338e-20
6 	1.41705378838763 	2.42861286636753e-17 	0.735659311270271 	-0.0138347595871268 	7.95194146027847e-20
6 	1.47678687776592 	2.42861286636753e-17 	0.755981259515752 	-0.0125327109369765 	1.0491318317024e-20
6 	1.53870816513278 	2.08166817117217e-17 	0.775740464995074 	-0.011220479905739 	6.48163222216436e-20
6 	1.60289781058851 	2.08166817117217e-17 	0.794837868475681 	-0.00992291318636468 	-4.76911925450011e-20
6 	1.66943891073267 	2.42861286636753e-17 	0.813191911972556 	-0.00866354342041777 	6.90726334073846e-23
6 	1.73841760623657 	3.12250225675825e-17 	0.830739515778528 	-0.00746340678033174 	-4.05953313448303e-20
6 	1.8099231933566 	2.77555756156289e-17 	0.847434316785211 	-0.00633880878699244 	-2.88792600957682e-20
6 	1.88404823953249 	1.73472347597681e-17 	0.863242671147766 	-0.00530539848773709 	1.72232522234395e-20
6 	1.96088870322038 	1.38777878078145e-17 	0.877352429002236 	-0.00441069218748621 	4.77701895111789e-20
6 	2.02024009608346 	1.38777878078145e-17 	0.887904405612439 	-0.00376424279038196 	2.04687958681206e-20
6 	2.06000503604194 	0 	0.89528269650706 	-0.00333256705532796 	0
6 	2.09836474743796 	0 	0.901355738429984 	-0.00297986010842888 	0
6 	2.13536888877257 	0 	0.906916101107629 	-0.00266518487971902 	0
6 	2.17106536369584 	-3.46944695195361e-18 	0.912007246249485 	-0.00238146546786983 	0
6 	2.20550038302044 	0 	0.91666714113727 	-0.00212506785248703 	0
6 	2.23871852454378 	6.93889390390723e-18 	0.920928856448222 	-0.00189248439683936 	0
6 	2.27076279075613 	1.04083408558608e-17 	0.924821238485607 	-0.00168060524401453 	0
6 	2.3016746645094 	1.04083408558608e-17 	0.928369428753597 	-0.00148673650316855 	0
6 	2.33149416271872 	6.93889390390723e-18 	0.931595312632017 	-0.0013085478745041 	0
6 	2.36025988816627 	6.93889390390723e-18 	0.934517901052851 	-0.00114402562071275 	0
6 	2.38800907947441 	6.93889390390723e-18 	0.937153652613915 	-0.000991433270513552 	0
6 	2.41477765931295 	6.93889390390723e-18 	0.939516744460896 	-0.000849276207393327 	0
6 	2.44060028090272 	3.46944695195361e-18 	0.941619299210545 	-0.000716270033526455 	0
6 	2.46551037287586 	0 	0.943471574069848 	-0.000591312724915617 	0
6 	2.48954018255081 	0 	0.94508211740293 	-0.000473460317921182 	7.50704830883497e-16
6 	2.512720817678 	0 	0.946457897244759 	-0.000361905815328822 	7.35348746030917e-16
6 	2.53508228671037 	-3.46944695195361e-18 	0.947604405499365 	-0.000255961008388899 	-7.80825186185021e-16
6 	2.55665353765073 	-1.04083408558608e-17 	0.948525740905513 	-0.000155040901081136 	-7.65469101332371e-16
6 	2.57746249552636 	-1.38777878078145e-17 	0.949224673418424 	-5.86504310462941e-05 	0
6 	2.59753609853934 	-1.38777878078145e-17 	0.94970269227215 	3.36267828708571e-05 	0
6 	2.61690033293929 	-1.38777878078145e-17 	0.949960039648596 	0.000122137910642798 	0
6 	2.63558026666389 	-1.38777878078145e-17 	0.949995731641833 	0.000207168821013654 	0
6 	2.65360008179049 	-1.38777878078145e-17 	0.949807568038421 	0.000288950629156816 	0
6 	2.67098310584102 	-1.38777878078145e-17 	0.949392132330096 	0.000367665057265318 	0
6 	2.68775184198056 	-1.73472347597681e-17 	0.948744783256609 	0.000443448757292405 	0
6 	2.70392799814879 	-2.08166817117217e-17 	0.947859639249003 	0.000516396730429548 	0
6 	2.71953251516198 	-2.08166817117217e-17 	0.946729557370541 	0.000586564977120646 	0
6 	2.73458559382185 	-2.08166817117217e-17 	0.945346108246719 	0.000653972501203726 	0
6 	2.74910672106653 	-2.08166817117217e-17 	0.943699548385361 	0.000718602781979631 	0
6 	2.76311469519732 	-2.08166817117217e-17 	0.941778791463023 	0.000780404830801601 	0
6 	2.776627650214 	-1.73472347597681e-17 	0.939571380159748 	0.000839293952378864 	0
6 	2.78966307929018 	-1.38777878078145e-17 	0.9370634598903 	0.000895152337814585 	0
6 	2.80223785741904 	-1.73472347597681e-17 	0.934239755342074 	0.000947829614685703 	0
6 	2.81436826325886 	-1.38777878078145e-17 	0.931083550024849 	0.000997143494599334 	0
6 	2.82607000020647 	-6.93889390390723e-18 	0.927576667816612 	0.00104288070407492 	0
6 	2.83735821672613 	-6.93889390390723e-18 	0.923699453515685 	0.00108479838339338 	0
6 	2.8482475259599 	-6.93889390390723e-18 	0.919430746731303 	0.00112262611096984 	0
6 	2.85875202464506 	0 	0.914747839855467 	0.0011560687092949 	0
6 	2.86888531136304 	6.93889390390723e-18 	0.909626406050724 	0.00118480997578732 	0
6 	2.87866050414343 	1.04083408558608e-17 	0.904040377007829 	0.00120851745256805 	0
6 	2.88809025744591 	1.38777878078145e-17 	0.897961742456482 	0.001226848302155 	0
6 	2.89718677854204 	1.38777878078145e-17 	0.891360233716009 	0.00123945628184884 	0
6 	2.90596184331818 	1.38777878078145e-17 	0.884202841403184 	0.00124599972519752 	0
6 	2.91442681151997 	1.04083408558608e-17 	0.87645310180527 	0.00124615035645165 	0
6 	2.922592641458 	6.93889390390723e-18 	0.868070065611198 	0.00123960268955881 	0
6 	2.93046990419394 	6.93889390390723e-18 	0.859006833535723 	0.00122608370920299 	0
6 	2.93806879722526 	6.93889390390723e-18 	0.849208500435455 	0.00120536251097152 	0
6 	2.94539915768638 	3.46944695195361e-18 	0.838609283505476 	0.00117725960513231 	0
6 	2.95247047508334 	0 	0.82712850505719 	0.00114165567914283 	0
6 	2.9592919035784 	0 	0.814664928179107 	0.00109849977744588 	0
6 	2.96587227384055 	0 	0.801088653849053 	0.00104781710331639 	0
6 	2.97222010447726 	0 	0.786229286869 	0.000989717064876393 	0
6 	2.97834361306218 	0 	0.769858183183544 	0.000924403052387645 	0
6 	2.98425072677325 	3.46944695195361e-18 	0.751660933743281 	0.000852186274772059 	0
6 	2.98994909265477 	6.93889390390723e-18 	0.731193036504445 	0.000773503163571445 	0
6 	2.99544608751689 	6.93889390390723e-18 	0.707805209238992 	0.000688940188463678 	0
6 	3.00074882748522 	6.93889390390723e-18 	0.680510920158929 	0.00059938892591783 	0
6 	3.00586417721304 	3.46944695195361e-18 	0.647737784276807 	0.000506691997475279 	0
6 	3.01079875876789 	0 	0.606835040303515 	0.000413308716456255 	-1.23964436772734e-14
6 	3.01555896020418 	0 	0.55308490218207 	0.000314479922607037 	-7.96794381674165e-15
6 	3.02015094383281 	0 	0.478228721082223 	0.000205794037394632 	2.12529598177432e-14
6 	3.02458065419861 	0 	0.372369672278054 	0.000114098341851395 	1.68244599572146e-14
6 	3.02885382577582 	0 	0.234985646992859 	6.08472258713959e-05 	0
6 	3.03297599039165 	0 	0.0797257669552482 	2.14324436134118e-05 	0
