1.00000000000453e-06 	1.00195556483898 	0 	0.887065336166198 	0.000100392724968267 	1566.21546082949
1.00000000000453e-06 	1.00593833258374 	0 	0.887095060788627 	0.000862811923233518 	699.000319540407
1.00000000000453e-06 	1.01006700077429 	0 	0.887182812549167 	0.00327630518676807 	184.109233956828
1.00000000000453e-06 	1.0143469141712 	0 	0.887425106255201 	0.00741604033888041 	120.857833762134
1.00000000000453e-06 	1.01878361332929 	0 	0.887925487720032 	0.0117173758982092 	108.636196278465
1.00000000000453e-06 	1.02338284177015 	-3.46944695195361e-18 	0.888699893054579 	0.0145408552353958 	95.263827038906
1.00000000000453e-06 	1.02815055341735 	-6.93889390390723e-18 	0.889726824105586 	0.0156124532070442 	77.5986928961239
1.00000000000453e-06 	1.03309292030413 	-6.93889390390723e-18 	0.891029661033942 	0.0156903105823378 	59.4290523469705
1.00000000000453e-06 	1.03821634056339 	-6.93889390390723e-18 	0.892639720975645 	0.0156319741315114 	43.3051172095005
1.00000000000453e-06 	1.04352744671036 	-1.04083408558608e-17 	0.894543993725525 	0.015922442770146 	30.5349668625087
1.00000000000453e-06 	1.04903311422874 	-1.04083408558608e-17 	0.896693139327796 	0.0166628428220201 	21.4267830754431
1.00000000000453e-06 	1.05474047047132 	-6.93889390390723e-18 	0.899033524581206 	0.0177281923026288 	15.480109486183
1.00000000000453e-06 	1.06065690388671 	-3.46944695195361e-18 	0.90153771006734 	0.018949898947682 	11.7804956322108
1.00000000000453e-06 	1.06679007358401 	-3.46944695195361e-18 	0.904197703683092 	0.0202085167995308 	9.46413075209879
1.00000000000453e-06 	1.07314791924792 	-6.93889390390723e-18 	0.907002381274263 	0.0214407946349407 	7.94307298914973
1.00000000000453e-06 	1.07973867141705 	-3.46944695195361e-18 	0.909940064429708 	0.0226224346476777 	6.88297272320778
1.00000000000453e-06 	1.08657086213875 	0 	0.913002598772463 	0.023746248673703 	6.10492051323102
1.00000000000453e-06 	1.09365333601424 	0 	0.916181949594695 	0.0248108928172037 	5.51093174552943
1.00000000000453e-06 	1.10099526164836 	3.46944695195361e-18 	0.91946981518743 	0.0258164979730686 	5.04404087125692
1.00000000000453e-06 	1.10860614351884 	6.93889390390723e-18 	0.922858309751551 	0.0267632081733224 	4.66886225789083
1.00000000000453e-06 	1.11649583428022 	3.46944695195361e-18 	0.926340083938477 	0.0276506520220374 	4.3621043986603
1.00000000000453e-06 	1.12467454751866 	6.93889390390723e-18 	0.92990805673384 	0.0284777023756679 	4.1077177835843
1.00000000000453e-06 	1.13315287097387 	1.73472347597681e-17 	0.933555255438772 	0.0292424363087856 	3.89423000095364
1.00000000000453e-06 	1.1419417802455 	2.08166817117217e-17 	0.937274823020493 	0.029942238682654 	3.71317840911386
1.00000000000453e-06 	1.15105265300152 	1.38777878078145e-17 	0.94106005711083 	0.0305739595803295 	3.55814391196564
1.00000000000453e-06 	1.1604972837072 	1.04083408558608e-17 	0.944904436998375 	0.0311340736725507 	3.42413701629745
1.00000000000453e-06 	1.17028789889366 	1.38777878078145e-17 	0.948801643352776 	0.0316188272768805 	3.30719840812605
1.00000000000453e-06 	1.1804371729856 	1.73472347597681e-17 	0.952745590496582 	0.0320243742513756 	3.20413183587297
1.00000000000453e-06 	1.19095824470904 	2.42861286636753e-17 	0.956730449673751 	0.0323469025147962 	3.11231844917813
1.00000000000453e-06 	1.20186473410003 	2.42861286636753e-17 	0.960750535756438 	0.0325827555896269 	3.02958262713484
1.00000000000453e-06 	1.21317076013637 	2.08166817117217e-17 	0.964800111426446 	0.0327285481241249 	2.95409089866845
1.00000000000453e-06 	1.22489095901542 	2.08166817117217e-17 	0.968873437921945 	0.032781251581863 	2.88427364983633
1.00000000000453e-06 	1.23704050310128 	2.08166817117217e-17 	0.97296487947805 	0.0327382491453427 	2.81877086179916
1.00000000000453e-06 	1.24963512056619 	2.42861286636753e-17 	0.977068735337724 	0.0325974118342265 	2.75640145518833
1.00000000000453e-06 	1.26269111575139 	2.77555756156289e-17 	0.981179185694847 	0.0323572243091993 	2.69614410188579
1.00000000000453e-06 	1.27622539027388 	2.77555756156289e-17 	0.985290478945079 	0.0320169184243798 	2.63711733838092
1.00000000000453e-06 	1.29025546490643 	2.77555756156289e-17 	0.989397050935071 	0.0315765518256806 	2.57855419360819
1.00000000000453e-06 	1.30479950225895 	2.77555756156289e-17 	0.993493551837951 	0.0310370266606539 	2.51977605336454
1.00000000000453e-06 	1.31987633029101 	3.12250225675825e-17 	0.997574878857674 	0.0304001073372927 	2.46017643204164
1.00000000000453e-06 	1.33550546668544 	3.81639164714898e-17 	1.00163621500663 	0.029668477319051 	2.39921823002763
1.00000000000453e-06 	1.35170714411495 	3.81639164714898e-17 	1.00567304649289 	0.0288458214077671 	2.33643872564759
1.00000000000453e-06 	1.3685023364343 	3.81639164714898e-17 	1.00968116442141 	0.0279369131687344 	2.27145746595632
1.00000000000453e-06 	1.38591278583198 	4.16333634234434e-17 	1.01365665664735 	0.0269477096224719 	2.20398698571153
1.00000000000453e-06 	1.40396103097652 	4.16333634234434e-17 	1.01759588105456 	0.0258854595183777 	2.13384591104513
1.00000000000453e-06 	1.42267043619387 	3.81639164714898e-17 	1.02149542607054 	0.0247588161454431 	2.06097107052484
1.00000000000453e-06 	1.44206522171365 	3.12250225675825e-17 	1.02535206643163 	0.0235779340292771 	1.98542514692674
1.00000000000453e-06 	1.46217049502345 	3.12250225675825e-17 	1.02916271880545 	0.0223545401208201 	1.90740201727367
1.00000000000453e-06 	1.48301228337162 	2.77555756156289e-17 	1.03292441941433 	0.0211022381185442 	1.82730490141728
1.00000000000453e-06 	1.50461756746086 	2.42861286636753e-17 	1.03663429191709 	0.0198375963160738 	1.74600510754538
1.00000000000453e-06 	1.52701431637603 	2.77555756156289e-17 	1.04028938568647 	0.0185808362034542 	1.66488846949031
1.00000000000453e-06 	1.55023152379144 	3.46944695195361e-17 	1.04388640789544 	0.0173536306402817 	1.58520261927408
1.00000000000453e-06 	1.57429924550461 	3.81639164714898e-17 	1.04742162097371 	0.0161754137763612 	1.50738040924226
1.00000000000453e-06 	1.59924863834497 	3.46944695195361e-17 	1.05089104926112 	0.0150617268981824 	1.43114588892487
1.00000000000453e-06 	1.62511200050782 	4.16333634234434e-17 	1.0542907995166 	0.0140243313963758 	1.35602015809202
1.00000000000453e-06 	1.65192281336593 	4.5102810375397e-17 	1.05761727885438 	0.0130713421307605 	1.28168164192551
1.00000000000453e-06 	1.67971578481283 	3.81639164714898e-17 	1.06086729284844 	0.0122072274511501 	1.20814241752816
1.00000000000453e-06 	1.70852689419381 	3.81639164714898e-17 	1.06403807932889 	0.011432893698765 	1.13579436911446
1.00000000000453e-06 	1.73839343888296 	4.16333634234434e-17 	1.06712729654545 	0.01074587317266 	1.06533507799567
1.00000000000453e-06 	1.76935408256639 	4.5102810375397e-17 	1.0701330270546 	0.0101407241620736 	0.997625333083736
1.00000000000453e-06 	1.80144890529426 	4.85722573273506e-17 	1.07305396541937 	0.00960972802029968 	0.933556705933693
1.00000000000453e-06 	1.83471945536634 	4.85722573273506e-17 	1.0758892548246 	0.00914425067899407 	0.874237922117133
1.00000000000453e-06 	1.86920880311829 	4.5102810375397e-17 	1.07863906667236 	0.00873670664553315 	0.821454634065309
1.00000000000453e-06 	1.9049615966783 	5.20417042793042e-17 	1.08130946718196 	0.00838054970227961 	0.777040561989966
1.00000000000453e-06 	1.94202411976624 	5.8702771376512e-17 	1.08390691457554 	0.00806667454103777 	0.741328835452053
1.00000000001227e-06 	1.98044435161019 	1.38777878078145e-17 	1.08642163045579 	0.00778244682441715 	0.713174698441589
1.00000000001227e-06 	2.02024009608346 	1.38777878078145e-17 	1.08881914306625 	0.0075206462271113 	0.691558432691811
1.00000000001227e-06 	2.06000503604194 	6.93889390390723e-18 	1.09104444475717 	0.0072845717042921 	0.676164868874994
1.00000000001227e-06 	2.09836474743797 	0 	1.09306208257487 	0.0070769625963481 	0.66649561995409
1.00000000001227e-06 	2.13536888877258 	0 	1.09488175144627 	0.00689348565202434 	0.661576089315964
1.00000000001227e-06 	2.17106536369585 	3.46944695195361e-18 	1.09652955768344 	0.0067283370368568 	0.660486455623935
1.00000000001227e-06 	2.20550038302045 	3.46944695195361e-18 	1.0980287393634 	0.00657748488229196 	0.662573855021931
1.00000000001227e-06 	2.23871852454379 	-6.93889390390723e-18 	1.09939945313857 	0.00643833953299356 	0.667396372466124
1.00000000001227e-06 	2.27076279075614 	-1.38777878078145e-17 	1.1006584153249 	0.00630926344612329 	0.674665853887688
1.00000000001227e-06 	2.30167466450941 	-1.38777878078145e-17 	1.10181943492708 	0.00618927358684869 	0.684207929420964
1.00000000001227e-06 	2.33149416271873 	-1.04083408558608e-17 	1.10289390710234 	0.0060778844705192 	0.695937522882181
1.00000000001227e-06 	2.36025988816627 	-1.04083408558608e-17 	1.10389124751905 	0.00597500948252842 	0.709845800419685
1.00000000001227e-06 	2.38800907947441 	-1.38777878078145e-17 	1.10481929371517 	0.00588088359003818 	0.72599505779582
1.00000000001227e-06 	2.41477765931296 	-1.38777878078145e-17 	1.1056846313993 	0.00579599874135868 	0.74451929024931
1.00000000001227e-06 	2.44060028090273 	-1.38777878078145e-17 	1.10649284647845 	0.00572105233971519 	0.765629360818544
1.00000000001227e-06 	2.46551037287587 	-1.38777878078145e-17 	1.10724872470817 	0.0056569103583228 	0.789622596146838
1.00000000001227e-06 	2.48954018255081 	-1.38777878078145e-17 	1.10795641527831 	0.00560458560529167 	0.816897460967477
1.00000000001227e-06 	2.512720817678 	-1.38777878078145e-17 	1.10861956226793 	0.00556523050819853 	0.847974432008782
1.00000000001227e-06 	2.53508228671037 	-1.38777878078145e-17 	1.10924140205494 	0.00554014339754536 	0.883523693702003
1.00000000001227e-06 	2.55665353765073 	-1.04083408558608e-17 	1.10982482995867 	0.00553078724518171 	0.924398641655406
1.00000000001227e-06 	2.57746249552637 	-1.04083408558608e-17 	1.11037244551596 	0.00553881901871766 	0.971671847870943
1.00000000001227e-06 	2.59753609853934 	-1.04083408558608e-17 	1.11088658274454 	0.00556612536725794 	1.02666708748885
1.00000000001227e-06 	2.6169003329393 	-6.93889390390723e-18 	1.11136932575175 	0.0056148559322842 	1.09097611962359
1.00000000001227e-06 	2.6355802666639 	-1.38777878078145e-17 	1.11182251396154 	0.00568743895916332 	1.16644159367576
1.00000000001227e-06 	2.6536000817905 	-2.08166817117217e-17 	1.11224775392184 	0.00578655535671469 	1.25508028823115
1.00000000001227e-06 	2.67098310584103 	-2.08166817117217e-17 	1.11264645876156 	0.00591503870171495 	1.35892022170411
1.00000000001227e-06 	2.68775184198057 	-2.77555756156289e-17 	1.11301991397333 	0.00607566033899255 	1.47973568690764
1.00000000001227e-06 	2.7039279981488 	-3.46944695195361e-17 	1.11336931530676 	0.00627072308382547 	1.61862811624631
1.00000000001227e-06 	2.71953251516198 	-3.46944695195361e-17 	1.11369567247885 	0.00650136354188295 	1.77549645930772
1.00000000001227e-06 	2.73458559382185 	-3.46944695195361e-17 	1.11399950167242 	0.00676660606192866 	1.94902553076405
1.00000000001227e-06 	2.74910672106653 	-3.46944695195361e-17 	1.11428037164265 	0.00706213751825163 	2.13751952495619
1.00000000001227e-06 	2.76311469519732 	-3.46944695195361e-17 	1.11453648290224 	0.00737833244617558 	2.3387172244702
1.00000000001227e-06 	2.776627650214 	-3.46944695195361e-17 	1.11476447105411 	0.00769820934210456 	2.54724957673708
1.00000000001227e-06 	2.78966307929018 	-3.46944695195361e-17 	1.1149600794352 	0.00799839556191054 	2.75293198172221
1.00000000001227e-06 	2.80223785741905 	-3.81639164714898e-17 	1.11512225498912 	0.00825522732721004 	2.94330526259899
1.00000000001227e-06 	2.81436826325886 	-4.5102810375397e-17 	1.11526221496228 	0.00845326053452436 	3.10900425875215
1.00000000001227e-06 	2.82607000020648 	-4.85722573273506e-17 	1.11540128176453 	0.00858945311367715 	3.24766886394174
1.00000000001227e-06 	2.83735821672614 	-5.55111512312578e-17 	1.11554886760054 	0.00866933617493649 	3.36253466023453
1.00000000001227e-06 	2.8482475259599 	-6.24500451351651e-17 	1.11569572641286 	0.00869987168821383 	3.45762886858676
1.00000000001227e-06 	2.85875202464506 	-6.24500451351651e-17 	1.1158326510941 	0.00868644062666728 	3.53590187162112
1.00000000001227e-06 	2.86888531136304 	-6.24500451351651e-17 	1.11595890451828 	0.00863421330319331 	3.60050822543591
1.00000000001227e-06 	2.87866050414343 	-6.24500451351651e-17 	1.11607622796084 	0.00854899245318269 	3.65549391092313
1.00000000001227e-06 	2.88809025744591 	-6.24500451351651e-17 	1.11618586897833 	0.00843672209511572 	3.70562765851012
1.00000000001227e-06 	2.89718677854204 	-6.24500451351651e-17 	1.1162889315868 	0.00830306623832225 	3.7562471435594
1.00000000001227e-06 	2.90596184331819 	-6.24500451351651e-17 	1.11638651731371 	0.00815310919956321 	3.81317916428228
1.00000000001227e-06 	2.91442681151997 	-6.59194920871187e-17 	1.11647968426234 	0.00799117328351919 	3.88275953885757
1.00000000001227e-06 	2.92259264145801 	-6.93889390390723e-17 	1.11656940462834 	0.00782073313788348 	3.9719773284449
1.00000000001227e-06 	2.93046990419395 	-7.28583859910259e-17 	1.11665652695542 	0.00764439984438737 	4.08877390317906
1.00000000001227e-06 	2.93806879722526 	-7.63278329429795e-17 	1.1167417370704 	0.007463947102781 	4.24254306903991
1.00000000001227e-06 	2.94539915768639 	-7.28583859910259e-17 	1.11682552039781 	0.00728035394643793 	4.44490956007604
1.00000000001227e-06 	2.95247047508335 	-6.93889390390723e-17 	1.11690812910961 	0.00709384127427887 	4.71091939740911
1.00000000001227e-06 	2.9592919035784 	-6.93889390390723e-17 	1.11698955681356 	0.00690388089398462 	5.06087481974599
1.00000000001227e-06 	2.96587227384056 	-6.93889390390723e-17 	1.11706952302093 	0.00670915307378684 	5.52322292839074
1.00000000001227e-06 	2.97222010447726 	-7.28583859910259e-17 	1.11714746932667 	0.00650741759035092 	6.1392271150136
1.00000000001227e-06 	2.97834361306218 	-7.97972798949331e-17 	1.11722256955035 	0.00629523547492198 	6.97074246319591
1.00000000001227e-06 	2.98425072677325 	-7.97972798949331e-17 	1.11729375743076 	0.0060674152324493 	8.11353012257977
1.00000000001227e-06 	2.98994909265478 	-7.63278329429795e-17 	1.11735977634947 	0.00581591609205138 	9.72066058330016
1.00000000001227e-06 	2.99544608751689 	-7.63278329429795e-17 	1.11741925871274 	0.00552763578375072 	12.0445941335133
1.00000000001227e-06 	3.00074882748522 	-7.97972798949331e-17 	1.11747088152771 	0.00517992034344477 	15.5144284569124
1.00000000001227e-06 	3.00586417721304 	-8.67361737988404e-17 	1.11751371747289 	0.00473139490633785 	20.8832781415708
1.00000000001227e-06 	3.01079875876789 	-9.0205620750794e-17 	1.11754729973405 	0.00410927920028436 	29.5287089927355
1.00000000001227e-06 	3.01555896020418 	-9.0205620750794e-17 	1.11757132749686 	0.00321349766490803 	44.2628601122462
1.00000000001227e-06 	3.02015094383281 	-9.71445146547012e-17 	1.11758632322439 	0.00204271473569462 	73.1802499387376
1.00000000001227e-06 	3.02458065419862 	-1.00613961606655e-16 	1.11759449624852 	0.000914430065138991 	156.439896720878
1.00000000001227e-06 	3.02885382577583 	-1.04083408558608e-16 	1.11759881233534 	0.000241736387464888 	650.988299171152
