7 	0.0118766634903468 	1.73472347597681e-17 	1.2021802397378 	0.000576452316678726 	130.361634816839
7 	0.0201339998195326 	1.90819582357449e-17 	1.20218057069204 	0.00223137668906936 	32.6260378237486
7 	0.0286938265600376 	2.25514051876985e-17 	1.20218200635718 	0.00443748308399529 	14.6952873691884
7 	0.0375672248214896 	2.25514051876985e-17 	1.20218212375497 	0.00639509397842512 	9.10899135863442
7 	0.0467656816470147 	2.25514051876985e-17 	1.20217893340702 	0.00803273454059654 	6.65633186320626
6.99999999999999 	0.0563011048837713 	2.08166817117217e-17 	1.20217155904003 	0.00945516432701506 	5.30517295626476
7 	0.0661858385982334 	1.21430643318376e-17 	1.20215970601078 	0.0107376090023604 	4.45121895092631
7 	0.0764326790561828 	0 	1.20214319690216 	0.0119252520808496 	3.86267374184017
7 	0.0870548912880936 	-3.46944695195361e-18 	1.20212190123059 	0.013046394346088 	3.43272724254498
7 	0.0980662262613554 	3.46944695195361e-18 	1.2020957434514 	0.014119882319096 	3.10543939252786
7 	0.109480938681567 	1.04083408558608e-17 	1.20206469601691 	0.0151589731312837 	2.84867320898252
6.99999999999999 	0.121313805445942 	1.04083408558608e-17 	1.20202877146949 	0.0161734318533403 	2.6426384653946
6.99999999999999 	0.133580144772717 	6.93889390390723e-18 	1.2019880184941 	0.0171707346738929 	2.47447369652205
6.99999999999999 	0.146295836031327 	3.46944695195361e-18 	1.20194251932911 	0.0181567947433424 	2.33545527812372
6.99999999999999 	0.159477340299017 	3.46944695195361e-18 	1.20189238706594 	0.0191364194052888 	2.21945780064322
7 	0.173141721670501 	6.93889390390723e-18 	1.20183776228214 	0.0201136084080575 	2.12205573785733
7 	0.187306669348262 	6.93889390390723e-18 	1.20177880875637 	0.0210917529654004 	2.03997536478567
7 	0.20199052054208 	6.93889390390723e-18 	1.20171570812735 	0.0220737707855828 	1.97074689847717
7 	0.217212284207436 	6.93889390390723e-18 	1.20164865314433 	0.0230621978140932 	1.91247623287106
7 	0.232991665653523 	1.04083408558608e-17 	1.20157783923878 	0.0240592493651428 	1.8636907494154
7 	0.249349092052728 	1.04083408558608e-17 	1.20150345414614 	0.0250668585124474 	1.82323245731164
7 	0.266305738884589 	0 	1.20142566528301 	0.0260866966278753 	1.79018219380073
7 	0.283883557348484 	-6.28837260041593e-18 	1.20134408357042 	0.0271204026146379 	1.76383345546509
7 	0.302105302780516 	-1.01915004213637e-17 	1.20125732554744 	0.0281697880000924 	1.74366769310835
7 	0.320994564111403 	-1.43114686768087e-17 	1.20116734934326 	0.029234895563335 	1.72909536516775
7 	0.340575794403482 	-1.56125112837913e-17 	1.20107407759631 	0.030316255917449 	1.71972840777816
7 	0.360874342506392 	-1.47451495458029e-17 	1.20097730744795 	0.0314140302926685 	1.71524772801953
7 	0.38191648587238 	-1.64798730217797e-17 	1.20087667596775 	0.0325279504101812 	1.71538793377499
7 	0.403729464573739 	-2.08166817117217e-17 	1.20077161959951 	0.0336572442237915 	1.71992444836198
7 	0.426341516566396 	-2.60208521396521e-17 	1.20066132702794 	0.0348005469404649 	1.72866228843007
7 	0.44978191424532 	-2.94902990916057e-17 	1.20054468584452 	0.0359557971585907 	1.74142600536528
7 	0.474081002339049 	-2.42861286636753e-17 	1.20042021997215 	0.0371201188147957 	1.75805048597757
7 	0.499270237192413 	-2.42861286636753e-17 	1.20028599185915 	0.0382896911140064 	1.77837251222883
7 	0.525382227488298 	-2.77555756156289e-17 	1.20013948236275 	0.0394596111941276 	1.80222323796299
7 	0.552450776461161 	-2.42861286636753e-17 	1.1999779046602 	0.0406237579488857 	1.82942208559828
7 	0.580510925656956 	-1.73472347597681e-17 	1.19979908489143 	0.0417746655094605 	1.8597728523299
7 	0.609599000296117 	-1.04083408558608e-17 	1.19959339596235 	0.042903611777614 	1.89306888408596
7 	0.639752656298308 	-6.93889390390723e-18 	1.1993275882655 	0.0440028661620745 	1.92916835876374
7 	0.671010929029843 	-3.46944695195361e-18 	1.19897555371263 	0.0450705738981148 	1.96806525578108
7 	0.703414283836854 	-1.04083408558608e-17 	1.19855532679354 	0.0460965334146783 	2.00907596619181
7 	0.737004668429647 	-1.38777878078145e-17 	1.19808916481596 	0.0470436526993699 	2.05006570960151
7 	0.761419519668443 	-6.93889390390723e-18 	1.19773292175769 	0.0476421265183516 	2.07746394779252
7 	0.779162313841552 	-4.55364912443912e-18 	1.19746120298632 	0.0480098597347131 	2.09515179064498
6.99999999999999 	0.807992742715646 	4.55364912443912e-18 	1.19699248585137 	0.0484877300481111 	2.11915250747149
6.99999999999999 	0.845475280399477 	9.10729824887824e-18 	1.1963262853947 	0.048877445911682 	2.14062769861279
6.99999999999999 	0.884326557652535 	8.67361737988404e-18 	1.19555818770128 	0.0489846471578637 	2.14957048582616
6.99999999999999 	0.924596372923087 	3.46944695195361e-18 	1.19467492406738 	0.0487791227183838 	2.14406321257248
6.99999999999999 	0.966336321272196 	-3.46944695195361e-18 	1.19366473678542 	0.0482417388830788 	2.12295161426976
6.99999999999999 	1.00959985787075 	-5.20417042793042e-18 	1.19251585886121 	0.0473647440160059 	2.08581350208179
6.99999999999999 	1.05444236361788 	-6.93889390390723e-18 	1.1912160168691 	0.0461537934542645 	2.03292883023762
6.99999999999999 	1.10092121293912 	-3.46944695195361e-18 	1.18975313329925 	0.0446308370083027 	1.96524958160115
6.99999999999999 	1.14909584382294 	0 	1.18811690441816 	0.0428359883113024 	1.88437073434178
7 	1.19902783015393 	-3.46944695195361e-18 	1.18630030265432 	0.04082646800485 	1.79248939593412
7 	1.25078095640108 	-8.45677694538693e-18 	1.18429950134161 	0.0386698266266843 	1.69206094297345
7 	1.30442129471847 	-1.01915004213637e-17 	1.18210809505826 	0.0364672448054925 	1.59034422822195
7 	1.36001728451516 	-1.04083408558608e-17 	1.17974059544641 	0.0343130468024783 	1.4925724975223
7 	1.41763981454947 	-1.38777878078145e-17 	1.17721369976222 	0.0322458846662542 	1.39856044579916
7 	1.47736230760124 	-1.56125112837913e-17 	1.17454852810016 	0.0302895292639445 	1.30878035613945
7 	1.53926080777324 	-1.04083408558608e-17 	1.17176984532864 	0.0284494011793699 	1.22326715569523
7 	1.60341407047001 	-1.38777878078145e-17 	1.16890424400574 	0.0267058587227652 	1.14010080435246
7 	1.66893489902569 	-1.04083408558608e-17 	1.16601950547239 	0.0250601684802626 	1.05959352169029
7 	1.7027752979414 	-2.54787510534094e-18 	1.16454185234084 	0.0242414622815558 	1.01920794642508
7 	1.73884798288128 	2.65629532258949e-18 	1.16301130603333 	0.0234260747764896 	0.979640517499303
7 	1.81031024575141 	1.04083408558608e-17 	1.16002826016702 	0.0218698907984827 	0.90671300780304
7 	1.88432958821743 	1.04083408558608e-17 	1.15704873949456 	0.02037262939864 	0.843279160853869
7 	1.9609947218388 	1.90819582357449e-17 	1.15413990747023 	0.0189652251003394 	0.791329167250218
7 	2.02024009608346 	2.77555756156289e-17 	1.15208346051865 	0.0179089767848602 	0.758056256695762
7 	2.06000503604194 	3.46944695195361e-18 	1.15069080675168 	0.0171954396174519 	0.738129526614484
7 	2.09836474743796 	3.46944695195361e-18 	1.14946413146852 	0.0165361417002824 	0.721717509141721
7 	2.13536888877258 	3.46944695195361e-18 	1.14832591238813 	0.0159050680297201 	0.707846200944092
7 	2.17106536369585 	3.46944695195361e-18 	1.14726763337798 	0.0153016910500087 	0.6963763509543
7 	2.20550038302044 	3.46944695195361e-18 	1.1462849737474 	0.0147253945552899 	0.687199999067091
7 	2.23871852454378 	3.46944695195361e-18 	1.14537295311056 	0.0141754561162013 	0.680235130884449
7 	2.27076279075613 	0 	1.14452675100163 	0.0136510689888542 	0.6754233682077
7 	2.30167466450941 	-3.46944695195361e-18 	1.14374187513963 	0.0131513756661361 	0.672728884191483
7 	2.33149416271872 	-6.93889390390723e-18 	1.14301411214893 	0.0126755015307244 	0.672137965198669
7 	2.36025988816627 	-1.38777878078145e-17 	1.14233950758062 	0.0122225839316809 	0.67365903163687
7 	2.38800907947441 	-2.08166817117217e-17 	1.14171435559301 	0.0117917956721812 	0.677323083444501
7 	2.41477765931295 	-2.08166817117217e-17 	1.14113518752886 	0.0113823633880678 	0.683184584811598
7 	2.44060028090272 	-1.73472347597681e-17 	1.1405987601608 	0.0109935817570494 	0.691322816792276
7 	2.46551037287586 	-1.90819582357449e-17 	1.14010204411334 	0.0106248245053958 	0.701843731465272
7 	2.48954018255081 	-2.08166817117217e-17 	1.13964221248832 	0.010275553039367 	0.714882344430678
7 	2.512720817678 	-1.73472347597681e-17 	1.13921662972968 	0.00994532333817019 	0.730605704675829
7 	2.53508228671037 	-1.38777878078145e-17 	1.13882284077878 	0.00963379154946553 	0.74921648102378
7 	2.55665353765073 	-1.38777878078145e-17 	1.13845856056269 	0.00934071854009505 	0.770957200364281
7 	2.57746249552636 	-1.38777878078145e-17 	1.13812166384838 	0.00906597347232828 	0.796115161886081
7 	2.59753609853934 	-1.38777878078145e-17 	1.13781017548771 	0.0088095362927883 	0.825028030186771
7 	2.61690033293929 	-1.73472347597681e-17 	1.13752226107147 	0.00857149883010654 	0.85809007443368
7 	2.63558026666389 	-2.08166817117217e-17 	1.13725621800511 	0.00835206399356709 	0.895758966278953
7 	2.65360008179049 	-2.08166817117217e-17 	1.1370104670132 	0.00815154234929918 	0.938562971745188
7 	2.67098310584102 	-2.42861286636753e-17 	1.13678354407536 	0.00797034513242031 	0.987108268869688
7 	2.68775184198056 	-2.77555756156289e-17 	1.13657409279127 	0.00780897255472901 	1.04208599386737
7 	2.70392799814879 	-2.77555756156289e-17 	1.13638085716732 	0.00766799612565639 	1.10427847037345
7 	2.71953251516198 	-2.77555756156289e-17 	1.13620267481179 	0.007548033674175 	1.17456392507686
7 	2.73458559382185 	-2.42861286636753e-17 	1.13603847051897 	0.00744971591098718 	1.25391886814449
7 	2.74910672106653 	-2.08166817117217e-17 	1.13588725021666 	0.00737364377826882 	1.34341726310153
7 	2.76311469519732 	-2.08166817117217e-17 	1.13574809524586 	0.0073203365585487 	1.44422568696625
7 	2.776627650214 	-2.42861286636753e-17 	1.13562015693875 	0.00729017177119311 	1.55759395199575
7 	2.78966307929018 	-3.12250225675825e-17 	1.13550265146203 	0.00728331921381109 	1.68484117979408
7 	2.80223785741904 	-3.46944695195361e-17 	1.13539485489927 	0.00729967294433184 	1.82733810832153
7 	2.81436826325886 	-3.81639164714898e-17 	1.13529609855787 	0.007338786283612 	1.98648743783116
7 	2.82607000020647 	-3.81639164714898e-17 	1.13520576450193 	0.00739981572209587 	2.16370517865112
7 	2.83735821672613 	-3.12250225675825e-17 	1.13512328132292 	0.00748147962836885 	2.36040708666069
7 	2.8482475259599 	-2.77555756156289e-17 	1.13504812018709 	0.00758203668981741 	2.57800517156209
7 	2.85875202464506 	-2.77555756156289e-17 	1.13497979133357 	0.0076992870700554 	2.81791978399132
7 	2.86888531136304 	-2.77555756156289e-17 	1.13491784105829 	0.00783059656593277 	3.0816128743348
7 	2.87866050414343 	-2.77555756156289e-17 	1.13486184692361 	0.00797294096854697 	3.37064775532557
7 	2.88809025744591 	-3.29597460435593e-17 	1.13481141000444 	0.00812296479103793 	3.68678032717123
7 	2.89718677854204 	-3.81639164714898e-17 	1.13476618337312 	0.0082770458453945 	4.03208660203373
7 	2.90596184331818 	-4.16333634234434e-17 	1.13472598123519 	0.00843135082849654 	4.40922995525728
7 	2.91442681151997 	-4.5102810375397e-17 	1.13469031483489 	0.00858182322500278 	4.82253242736289
7 	2.922592641458 	-4.5102810375397e-17 	1.13465859705704 	0.00872395135142686 	5.2775913742523
7 	2.93046990419394 	-4.5102810375397e-17 	1.13463045800246 	0.00885189575343845 	5.7786041320042
7 	2.93806879722526 	-4.16333634234434e-17 	1.13460552786784 	0.00895893852681679 	6.32860787648855
7 	2.94539915768638 	-3.46944695195361e-17 	1.13458359841402 	0.00903929844849582 	6.93279744141572
7 	2.95247047508334 	-3.12250225675825e-17 	1.13456469351976 	0.00908901650566427 	7.60156607581792
7 	2.9592919035784 	-3.12250225675825e-17 	1.13454929817513 	0.00910578016127707 	8.35351326949329
7 	2.96587227384055 	-3.12250225675825e-17 	1.13453819619426 	0.00908763318606871 	9.21908333353909
7 	2.97222010447726 	-3.46944695195361e-17 	1.13453092720598 	0.00903207802001666 	10.242412617429
7 	2.97834361306218 	-3.46944695195361e-17 	1.13452644754682 	0.00893480846870307 	11.4839407621231
7 	2.98425072677325 	-3.12250225675825e-17 	1.13452445686242 	0.00878903340965104 	13.0310385724301
7 	2.98994909265477 	-3.12250225675825e-17 	1.13452475971433 	0.00858434095350843 	15.0174398947561
7 	2.99544608751689 	-3.12250225675825e-17 	1.13452708878261 	0.00830407548243566 	17.6567873559606
7 	3.00074882748522 	-2.94902990916057e-17 	1.13453112712826 	0.0079202619949402 	21.3072531908129
7 	3.00586417721304 	-3.12250225675825e-17 	1.13453651006103 	0.00738282158695763 	26.6055482124542
7 	3.01079875876789 	-3.46944695195361e-17 	1.13454273610225 	0.00659870838295001 	34.761153359503
7 	3.01555896020418 	-3.46944695195361e-17 	1.13454905597345 	0.00541560002068237 	48.2776933602432
7 	3.02015094383281 	-3.46944695195361e-17 	1.13455435927099 	0.00365333322542653 	73.5670045298081
7 	3.02458065419861 	-3.46944695195361e-17 	1.13455783201328 	0.00155848840710934 	136.638059006191
7 	3.02885382577582 	-3.12250225675825e-17 	1.13455996522373 	0.000311145472204949 	433.042460638336
7 	3.03297599039165 	-3.46944695195361e-17 	1.13456139853628 	2.39573445917352e-05 	1716.46919131018
