3 	0.00391112967796271 	-1.90819582357449e-17 	1.12324598231063 	0.00109805772679669 	447.323165274737
3 	0.0118766651674914 	-2.42861286636753e-17 	1.12321875267646 	0.00707381761095888 	138.615004374384
3 	0.0201340015485759 	-2.77555756156289e-17 	1.12313961922037 	0.0155915647047531 	44.0847010208643
3 	0.0286938283423949 	-3.12250225675825e-17 	1.12298737572901 	0.0224833341820409 	23.682542409419
3 	0.0375672266585909 	-3.12250225675825e-17 	1.12278140963824 	0.0277371838506897 	16.1416099572214
3 	0.0467656835403032 	-2.42861286636753e-17 	1.12254265853327 	0.0320009090519432 	12.3216038735967
3 	0.0563011068347007 	-1.56125112837913e-17 	1.12228021238536 	0.0356493228010194 	10.0196360116726
3 	0.0661858406082649 	-1.73472347597681e-17 	1.12199848045348 	0.0388843588796537 	8.48186741475604
3 	0.0764326811267816 	-1.90819582357449e-17 	1.12170108742647 	0.0418242684587524 	7.38347177278547
3 	0.0870548934207257 	-1.73472347597681e-17 	1.12139126093986 	0.0445440433571637 	6.56162017492862
3 	0.0980662284574838 	-1.56125112837913e-17 	1.12107186352186 	0.0470943230006037 	5.92562703653423
3 	0.109480940942647 	-8.67361737988404e-18 	1.12074553826262 	0.0495110110579619 	5.42093252156668
3 	0.121313807773417 	-3.46944695195361e-18 	1.12041481502612 	0.0518205557167465 	5.01271956696151
3 	0.133580147168011 	-5.20417042793042e-18 	1.12008216214479 	0.0540430376454401 	4.67771640819299
3 	0.146295838495839 	-6.93889390390723e-18 	1.11975001250264 	0.0561940698794148 	4.39977760304362
3 	0.159477342834115 	0 	1.11942077715239 	0.0582860146482723 	4.16735495600023
3 	0.173141724277517 	1.38777878078145e-17 	1.11909685071145 	0.0603287869270857 	3.97197706242631
3 	0.18730667202848 	3.12250225675825e-17 	1.11878061111407 	0.06233039627004 	3.80729673916516
3 	0.201990523296728 	4.16333634234434e-17 	1.118474415745 	0.0642973156501665 	3.66847287036148
3 	0.217212287037676 	3.81639164714898e-17 	1.11818059548808 	0.066234730955554 	3.55175682171374
3 	0.232991668560441 	3.81639164714898e-17 	1.11790144791441 	0.0681467043358685 	3.45420812124537
3 	0.249349095037321 	4.5102810375397e-17 	1.11763923065535 	0.0700362721673403 	3.37349410838085
3 	0.266305741947753 	4.85722573273506e-17 	1.11739615589071 	0.0719054905588037 	3.30774539599916
3 	0.283883560490999 	4.16333634234434e-17 	1.11717438710642 	0.073755436178185 	3.25544911082776
3 	0.30210530600303 	3.46944695195361e-17 	1.11697603999208 	0.0755861666925274 	3.21536802194492
3 	0.320994567414414 	2.77555756156289e-17 	1.11680318701376 	0.0773966431310666 	3.18647750451853
3 	0.340575797787321 	1.04083408558608e-17 	1.1166578601815 	0.0791846149321196 	3.16791470603202
3 	0.360874345971201 	0 	1.11654206038958 	0.0809464624091667 	3.15893558931143
3 	0.381916489418091 	3.46944695195361e-18 	1.11645777709794 	0.0826769982651273 	3.15887686081238
3 	0.403729468200046 	1.04083408558608e-17 	1.11640701083508 	0.0843692283772643 	3.16712036560035
3 	0.426341520272733 	2.08166817117217e-17 	1.11639179449822 	0.0860140694774023 	3.1830577326635
3 	0.441285719950775 	2.60208521396521e-17 	1.11639935550915 	0.0870469507216134 	3.19666936644065
3 	0.453216730115852 	2.94902990916057e-17 	1.11642000067836 	0.0878239963632279 	3.20981430481913
3 	0.474081006202548 	3.12250225675825e-17 	1.11647562275228 	0.0891144387335016 	3.2353054185379
3 	0.499270241132364 	4.16333634234434e-17 	1.11657908710821 	0.0905387302684127 	3.27014295811919
3 	0.525382231502763 	6.24500451351651e-17 	1.11672676343822 	0.0918523540273776 	3.30957798203727
3 	0.552450780547767 	5.89805981832114e-17 	1.11692096937257 	0.0930306626110745 	3.35242515497031
3 	0.58051092981285 	4.5102810375397e-17 	1.11716398124209 	0.0940448580690338 	3.39722021095275
3 	0.609599004517911 	3.81639164714898e-17 	1.11745791635903 	0.0948618924068035 	3.44215559826236
3 	0.639752660582033 	3.81639164714898e-17 	1.11780455850014 	0.0954446666870403 	3.48502017070001
3 	0.671010933370887 	4.16333634234434e-17 	1.1182051183079 	0.0957527051554167 	3.52315451003031
3 	0.703414288229901 	4.16333634234434e-17 	1.1186599385543 	0.0957435617371591 	3.55344608294715
3 	0.737004672868606 	4.5102810375397e-17 	1.1191682212486 	0.0953753213761673 	3.57241752061938
3 	0.771825571663976 	5.89805981832114e-17 	1.11972795416921 	0.0946105178965269 	3.57648481824764
3 	0.807922061953054 	6.24500451351651e-17 	1.12033618351124 	0.093421304547164 	3.56239233275076
3 	0.845340872387743 	5.55111512312578e-17 	1.12098946875134 	0.0917949601870511 	3.52764252732072
3 	0.88413044342731 	5.55111512312578e-17 	1.12168405602326 	0.089738680259243 	3.47065391798524
3 	0.924340990046898 	5.55111512312578e-17 	1.12241552416423 	0.0872833761555132 	3.39060813678042
3 	0.966024566743242 	5.89805981832114e-17 	1.12317822297126 	0.0844867149921317 	3.2872494890113
3 	1.00923513492173 	6.24500451351651e-17 	1.1239650343287 	0.0814348193969465 	3.16092490995837
3 	1.05402863275206 	6.24500451351651e-17 	1.12476769730455 	0.0782404781222867 	3.01293455160954
3 	1.10046304758287 	6.59194920871187e-17 	1.12557758343205 	0.0750349669896784 	2.84602910967949
3 	1.14859849100923 	6.93889390390723e-17 	1.12638663699819 	0.0719520261691062 	2.66475203625115
3 	1.19849727668995 	6.59194920871187e-17 	1.1271881218863 	0.0691063805971067 	2.47532884202336
3 	1.25022400101563 	6.04984812246911e-17 	1.12797665999998 	0.0665752683822833 	2.28503544054516
3 	1.30384562673186 	5.70290342727375e-17 	1.12874716618716 	0.0643912259276824 	2.10149606547924
3 	1.35943156962566 	5.46437894932694e-17 	1.12949639281071 	0.0625173698754382 	1.93063334498481
3 	1.41705378838763 	5.63785129692462e-17 	1.13022019523163 	0.0608919423742028 	1.7765268146504
3 	1.47678687776592 	6.24500451351651e-17 	1.1309156673632 	0.0594360217069641 	1.64101728029234
3 	1.53870816513278 	6.24500451351651e-17 	1.13158199270587 	0.0580665690671472 	1.52340492527307
3 	1.60289781058851 	6.07153216591882e-17 	1.13221814547548 	0.0567085047366736 	1.42218587023667
3 	1.66943891073267 	5.89805981832114e-17 	1.13282142460293 	0.0553018627797372 	1.33635133137273
3 	1.73841760623657 	5.20417042793042e-17 	1.13338920784058 	0.0537990554901554 	1.26430690083827
3 	1.8099231933566 	4.85722573273506e-17 	1.13391896239096 	0.0521625007143421 	1.20400160502461
3 	1.88404823953249 	4.68375338513738e-17 	1.1344098000732 	0.0503650841653991 	1.15384084655679
3 	1.96088870322038 	1.73472347597681e-17 	1.1348192559527 	0.0485109875532322 	1.11472848690872
3 	2 	2.08166817117217e-17 	1.13498796305099 	0.0476118356408491 	1.09850719893405
3 	2.02024009608346 	2.42861286636753e-17 	1.13512258246946 	0.0469410495645869 	1.08924302764233
3 	2.06000503604194 	2.77555756156289e-17 	1.13533502901779 	0.0457211310809489 	1.07398237854744
3 	2.09836474743796 	2.77555756156289e-17 	1.1354845500745 	0.0446305434648444 	1.06341322570005
3 	2.13536888877257 	2.77555756156289e-17 	1.13561817752111 	0.0435564579388652 	1.05559725495298
3 	2.17106536369585 	2.77555756156289e-17 	1.13573230526594 	0.0425009503556899 	1.05036867742723
3 	2.20550038302044 	2.77555756156289e-17 	1.13582791521994 	0.0414656782979508 	1.0476033105368
3 	2.23871852454378 	2.42861286636753e-17 	1.13590674896924 	0.0404519202439694 	1.04721076072273
3 	2.27076279075613 	2.08166817117217e-17 	1.13597028104388 	0.039460614964547 	1.04912879788751
3 	2.30167466450941 	2.08166817117217e-17 	1.13601986589556 	0.0384924045244084 	1.05331944564779
3 	2.33149416271872 	1.73472347597681e-17 	1.13605678926882 	0.0375476774950906 	1.05976632840035
3 	2.36025988816627 	1.38777878078145e-17 	1.13608226432213 	0.036626609896282 	1.06847295170332
3 	2.38800907947441 	1.38777878078145e-17 	1.13609743158812 	0.0357292027165257 	1.07946170313536
3 	2.41477765931296 	1.38777878078145e-17 	1.13610336127827 	0.0348553155555839 	1.09277343353302
3 	2.44060028090273 	1.38777878078145e-17 	1.13610105537543 	0.0340046963227964 	1.10846752891519
3 	2.46551037287587 	1.38777878078145e-17 	1.13609144963995 	0.0331770071642452 	1.12662242014304
3 	2.48954018255081 	1.38777878078145e-17 	1.13607541570629 	0.0323718469257653 	1.14733650512781
3 	2.51272081767801 	1.38777878078145e-17 	1.13605376329456 	0.0315887705248906 	1.17072948047273
3 	2.53508228671038 	1.38777878078145e-17 	1.13602724253786 	0.0308273056284898 	1.19694409817033
3 	2.55665353765073 	1.38777878078145e-17 	1.13599654641978 	0.0300869670310001 	1.2261483800753
3 	2.57746249552636 	1.38777878078145e-17 	1.13596231330856 	0.0293672691117901 	1.25853833963594
3 	2.59753609853934 	1.38777878078145e-17 	1.13592512956822 	0.0286677367263437 	1.294341277861
3 	2.6169003329393 	1.38777878078145e-17 	1.13588553222397 	0.0279879148591234 	1.3338197396706
3 	2.6355802666639 	1.38777878078145e-17 	1.13584401165701 	0.0273273773388082 	1.37727623854106
3 	2.6536000817905 	1.38777878078145e-17 	1.13580101430347 	0.0266857348905016 	1.42505888263503
3 	2.67098310584103 	1.73472347597681e-17 	1.13575694533235 	0.0260626427749172 	1.4775680654138
3 	2.68775184198056 	2.08166817117217e-17 	1.13571217127791 	0.0254578082411766 	1.53526441916028
3 	2.70392799814879 	2.08166817117217e-17 	1.13566702260316 	0.0248709979966444 	1.59867827212736
3 	2.71953251516198 	2.08166817117217e-17 	1.13562179617156 	0.0243020458724247 	1.66842090052732
3 	2.73458559382185 	2.08166817117217e-17 	1.1355767576055 	0.0237508608340298 	1.74519792677269
3 	2.74910672106653 	2.08166817117217e-17 	1.13553214350986 	0.0232174354494722 	1.82982528683035
3 	2.76311469519732 	2.08166817117217e-17 	1.13548816353997 	0.0227018548762787 	1.92324827382426
3 	2.776627650214 	2.08166817117217e-17 	1.13544500229209 	0.0222043063573921 	2.02656426357494
3 	2.78966307929018 	2.08166817117217e-17 	1.13540282099477 	0.0217250891138742 	2.14104984178085
3 	2.80223785741904 	1.73472347597681e-17 	1.1353617589779 	0.0212646243770479 	2.26819318277442
3 	2.81436826325886 	1.38777878078145e-17 	1.13532193489628 	0.0208234650981455 	2.40973267643898
3 	2.82607000020648 	1.38777878078145e-17 	1.13528344768451 	0.0204023045902238 	2.56770296281348
3 	2.83735821672614 	1.38777878078145e-17 	1.13524637722244 	0.0200019829731263 	2.74448971353093
3 	2.84824752595991 	1.38777878078145e-17 	1.13521078469608 	0.0196234897854612 	2.94289469881288
3 	2.85875202464507 	1.38777878078145e-17 	1.1351767126504 	0.0192679604804491 	3.16621290971361
3 	2.86888531136304 	1.38777878078145e-17 	1.13514418474953 	0.0189366637306277 	3.41832379780898
3 	2.87866050414343 	1.38777878078145e-17 	1.13511320529015 	0.0186309755513811 	3.70379911689982
3 	2.88809025744591 	1.38777878078145e-17 	1.13508375855608 	0.0183523352800639 	4.02803054399002
3 	2.89718677854204 	1.38777878078145e-17 	1.135055808157 	0.0181021775437223 	4.39738148782392
3 	2.90596184331819 	1.38777878078145e-17 	1.13502929655689 	0.0178818337177539 	4.81936974413889
3 	2.91442681151997 	1.38777878078145e-17 	1.13500414505884 	0.0176923962931505 	5.3028917492113
3 	2.92259264145801 	1.38777878078145e-17 	1.1349802545538 	0.0175345403229943 	5.85850646013663
3 	2.93046990419395 	1.38777878078145e-17 	1.13495750734003 	0.0174082978992847 	6.49880947673837
3 	2.93806879722526 	1.73472347597681e-17 	1.13493577025193 	0.0173127842933705 	7.23894923086664
3 	2.94539915768638 	2.08166817117217e-17 	1.1349148991884 	0.0172458772328029 	8.09737213875969
3 	2.95247047508335 	2.08166817117217e-17 	1.13489474490592 	0.0172038520622732 	9.09694118608828
3 	2.9592919035784 	2.08166817117217e-17 	1.13487515967057 	0.0171809721783879 	10.2666678116779
3 	2.96587227384055 	2.08166817117217e-17 	1.13485600409721 	0.0171690213007395 	11.6444594654385
3 	2.97222010447726 	2.08166817117217e-17 	1.13483715331116 	0.0171567344040996 	13.2815745737861
3 	2.97834361306218 	2.08166817117217e-17 	1.13481850144808 	0.0171290250960884 	15.250020983736
3 	2.98425072677325 	2.08166817117217e-17 	1.13479996288231 	0.0170657949779384 	17.6552207768726
3 	2.98994909265477 	2.08166817117217e-17 	1.13478146656228 	0.016939892526235 	20.6585694408181
3 	2.99544608751689 	2.08166817117217e-17 	1.13476294012045 	0.0167133415501918 	24.5197035737969
3 	3.00074882748522 	2.08166817117217e-17 	1.13474430127178 	0.0163299280787068 	29.6820357141721
3 	3.00586417721304 	2.08166817117217e-17 	1.13472541074116 	0.0156998735693401 	36.9595681505464
3 	3.01079875876789 	2.42861286636753e-17 	1.13470538661633 	0.0146669263217477 	47.9901091525774
3 	3.01555896020418 	2.77555756156289e-17 	1.13468082523668 	0.012940812616543 	66.5143616084407
3 	3.02015094383282 	2.77555756156289e-17 	1.1346484194582 	0.0100482853253496 	102.964746151848
3 	3.02458065419862 	2.77555756156289e-17 	1.13461386123613 	0.00598164133027555 	200.76443215384
3 	3.02885382577583 	2.77555756156289e-17 	1.13458932530437 	0.0022467906742026 	694.284285290848
