8 	0.451351328258348 	2.42861286636753e-17 	1.32015330088555 	0.000567082056218463 	1076.21932917097 	0.0113194382354478
8 	0.457856884620643 	2.08166817117217e-17 	1.31971631890969 	0.00417435290952298 	327.894265435097 	0.0346826249597825
8 	0.464597494115106 	2.42861286636753e-17 	1.31918139043238 	0.0117308902563809 	97.4234837635889 	0.0419283480952101
8 	0.471581531993148 	2.42861286636753e-17 	1.31850979481044 	0.0187718495553877 	46.1998031480455 	0.0355897914793759
8 	0.478817663648092 	2.08166817117217e-17 	1.31766552990627 	0.0241609228131502 	28.3020142124759 	0.0289007084997977
8 	0.486314854098318 	2.25514051876985e-17 	1.31667746051473 	0.0283947264664276 	19.9795049471362 	0.0241979796446893
8 	0.49408237774287 	1.56125112837913e-17 	1.31557228006859 	0.0319094614251526 	15.3080216551681 	0.0209112029363057
8 	0.502129828395036 	1.04083408558608e-17 	1.31436063711305 	0.0349537432998763 	12.3524880082647 	0.0185159867867288
8 	0.510467129599323 	2.08166817117217e-17 	1.31304744700022 	0.0376716346040763 	10.3277281147424 	0.0167005272711167
8 	0.519104545237329 	2.08166817117217e-17 	1.31163619428408 	0.0401520474105778 	8.86082321155049 	0.015280498839389
8 	0.528052690427915 	1.73472347597681e-17 	1.31012934286119 	0.0424531204102001 	7.75336539383157 	0.0141419936569062
8 	0.537322542727032 	2.08166817117217e-17 	1.30852852676856 	0.0446146698119157 	6.8905085964827 	0.0132112095637322
8 	0.546925453632554 	1.90819582357449e-17 	1.30683483411149 	0.046664950811647 	6.20133344312124 	0.0124382767802336
8 	0.556873160399407 	1.47451495458029e-17 	1.30504900421435 	0.0486245507664712 	5.63975203797444 	0.0117882642019107
8 	0.567177798170198 	1.82145964977565e-17 	1.30317155071345 	0.0505087472589802 	5.17455204410342 	0.0112359449106994
8 	0.577851912426569 	2.25514051876985e-17 	1.30120285328015 	0.0523289987681125 	4.78386468123569 	0.010762617892671
8 	0.58890847176635 	2.51534904016637e-17 	1.29914323635558 	0.0540939218980028 	4.45192591200105 	0.0103541046743104
8 	0.600360881011604 	2.94902990916057e-17 	1.29699304325204 	0.0558099527365928 	4.16709570883264 	0.00999944501488257
8 	0.612222994652597 	3.12250225675825e-17 	1.29475270988267 	0.0574818079066353 	3.92060132478786 	0.00969002413584068
8 	0.624509130632625 	2.86229373536173e-17 	1.29242283477146 	0.0591128159137994 	3.70571464223904 	0.00941897555705264
8 	0.637234084478675 	2.73218947466347e-17 	1.29000425613393 	0.0607051638017054 	3.51719925116174 	0.00918076577819717
8 	0.65041314378278 	2.77555756156289e-17 	1.28749825599537 	0.0622600893043285 	3.35093059353133 	0.0089709030548193
8 	0.664062103038993 	2.86229373536173e-17 	1.28490700143343 	0.0637780407986541 	3.20363054151957 	0.00878573433528917
8 	0.678197278840822 	2.57226965422186e-17 	1.28223267060885 	0.0652588204905335 	3.072679659189 	0.00862230694555457
8 	0.692835525444093 	2.52890156732244e-17 	1.27945868229846 	0.06670114412956 	2.95614799032119 	0.00847866122318301
8 	0.707994250700163 	2.77555756156289e-17 	1.2765774703408 	0.0681037100796701 	2.85242770970624 	0.00835319839233454
8 	0.723691432364531 	2.42861286636753e-17 	1.27368534811092 	0.0694675217260566 	2.75982631637378 	0.00824386275519098
8 	0.739945634786034 	2.08166817117217e-17 	1.27090799498862 	0.0708021750613518 	2.67648134720741 	0.00814850267884928
8 	0.756776025981913 	2.08166817117217e-17 	1.26821857584485 	0.0721230394701675 	2.60043231011065 	0.0080646638435669
8 	0.77420239510431 	2.08166817117217e-17 	1.26547218408804 	0.0734350008401656 	2.53061855668833 	0.00799090887074918
8 	0.792245170304006 	2.42861286636753e-17 	1.26260320447016 	0.0747338743403991 	2.46653533381688 	0.00792630849265384
8 	0.810925436997537 	2.42861286636753e-17 	1.25961060448755 	0.0760130694717152 	2.40775687909655 	0.00786985733475712
8 	0.830264956544259 	2.42861286636753e-17 	1.25649906457731 	0.0772647315825722 	2.35386146963545 	0.00782038368059974
8 	0.850286185340416 	2.08166817117217e-17 	1.25327138527971 	0.0784799759588949 	2.30442151811152 	0.00777654365560812
8 	0.871012294337907 	1.04083408558608e-17 	1.24993192470172 	0.0796490563049561 	2.25899970992651 	0.0077368229605003
8 	0.892467188996067 	3.46944695195361e-18 	1.24648702468865 	0.0807614738863253 	2.21714940180884 	0.00769954551649392
8 	0.914675529675727 	-3.46944695195361e-18 	1.24294464369673 	0.081806066933741 	2.17841718072224 	0.00766288882596227
8 	0.93766275248567 	-3.46944695195361e-18 	1.23931426418649 	0.0827711065574764 	2.14234613822003 	0.00762490512584037
8.00000000000001 	0.961455090592773 	0 	1.23560689276755 	0.0836444059910554 	2.10847942518607 	0.00758354813776514
8.00000000000001 	0.986079596008391 	3.46944695195361e-18 	1.23183503960489 	0.0844134466132922 	2.0763639143136 	0.00753670543912259
8.00000000000001 	1.01156416186494 	0 	1.2280126708643 	0.0850655236926668 	2.04555385037475 	0.00748223633525118
8.00000000000001 	1.03793754519838 	-6.93889390390723e-18 	1.22415513533888 	0.0855879132366659 	2.01561442677519 	0.00741801491566147
8.00000000000001 	1.06522939025402 	-6.93889390390723e-18 	1.22027905643578 	0.085968059602675 	1.98612528226821 	0.00734197777692235
8.00000000000001 	1.09347025233532 	-1.73472347597681e-17 	1.21640217859972 	0.0861937826842327 	1.95668398159135 	0.00725217583674136
8.00000000000001 	1.12269162221744 	-2.42861286636753e-17 	1.21254316344704 	0.0862535038650244 	1.92690962444496 	0.00714682974293649
8 	1.15292595115017 	-1.38777878078145e-17 	1.20872133316003 	0.086136491350779 	1.89644682084845 	0.00702438856116183
8 	1.18420667647759 	-3.46944695195361e-18 	1.20495635851892 	0.0858331276453269 	1.8649703736706 	0.00688359163136182
8.00000000000001 	1.20932909530118 	-6.07153216591882e-18 	1.20206957928919 	0.0854665834997674 	1.83956057471219 	0.00676090534959739
8.00000000000001 	1.2257861591868 	-1.64798730217797e-17 	1.20024553628341 	0.0851692675510382 	1.82281873706269 	0.00667608365730339
8 	1.25005321751835 	-1.38777878078145e-17 	1.19766742127964 	0.0846421027827464 	1.79791090807425 	0.00654428761253733
8 	1.28469102414858 	-1.04083408558608e-17 	1.19417978746259 	0.0837442108732571 	1.7618999636626 	0.00634531812518565
8 	1.32051868198682 	-1.38777878078145e-17 	1.19082241822753 	0.0826389029682064 	1.7240152055858 	0.00612707118175803
8.00000000000001 	1.3575749113027 	-1.73472347597681e-17 	1.18760996575715 	0.081326416342314 	1.68417910902418 	0.00589056639749268
8.00000000000001 	1.39589958614844 	-1.73472347597681e-17 	1.18455294576114 	0.0798095762218934 	1.64237749874212 	0.00563734150965854
8.00000000000001 	1.43553376564931 	-1.21430643318376e-17 	1.18165489030262 	0.078094184866918 	1.59866391260892 	0.00536945254056627
8.00000000000001 	1.4765197263157 	-1.38777878078145e-17 	1.17891214796075 	0.0761909394188508 	1.5531993578135 	0.00508967266009516
8.00000000000001 	1.51890099544909 	-1.38777878078145e-17 	1.17632488657853 	0.0741202646637959 	1.50637261108605 	0.00480208151057624
8.00000000000001 	1.56272238572048 	-8.67361737988404e-18 	1.17392364272952 	0.0719174842390469 	1.45896625317206 	0.00451268165354808
8.00000000000001 	1.60803003100718 	-1.38777878078145e-17 	1.17177590956824 	0.069624609936204 	1.41206482562698 	0.00422825868449305
8.00000000000001 	1.65487142358089 	-1.38777878078145e-17 	1.16990020314352 	0.0672505423389636 	1.36622850399426 	0.0039513801575413
8.00000000000001 	1.70329545274807 	-6.93889390390723e-18 	1.16829692774442 	0.064781149389359 	1.32136009214493 	0.00368113363899218
8 	1.75335244505158 	-8.45677694538693e-18 	1.16689631349873 	0.06221908321465 	1.2775670658036 	0.00341819157230195
8 	1.80509420615116 	-4.98732999343332e-18 	1.16562953781849 	0.0595804214647706 	1.23529180375319 	0.0031648234519541
8.00000000000001 	1.85857406450892 	-3.46944695195361e-18 	1.16449885961664 	0.0568846154775413 	1.19516324867383 	0.00292367051084493
8.00000000000001 	1.91384691701537 	-6.93889390390723e-18 	1.16351723158211 	0.0541551075325185 	1.15780333520759 	0.00269657289509585
8.00000000000001 	1.97096927670054 	-1.21430643318376e-17 	1.16266694468836 	0.0514426295029366 	1.12430940656088 	0.00248750560919986
8 	2.02024009608346 	1.38777878078145e-17 	1.16208771820404 	0.0491610551344443 	1.09952550859891 	0.0023246539960487
8 	2.06000503604194 	2.08166817117217e-17 	1.16164150869258 	0.0473315554953244 	1.08202018211386 	0.00220240527052087
8 	2.09836474743796 	2.08166817117217e-17 	1.16129889780385 	0.0456400465203319 	1.06812499014115 	0.00209638257941149
8 	2.13536888877258 	1.38777878078145e-17 	1.16102824013321 	0.0440503809544079 	1.05734515530926 	0.00200290652922446
8 	2.17106536369585 	2.08166817117217e-17 	1.16081148531536 	0.0425556005339512 	1.04952890906987 	0.00192060375901308
8 	2.20550038302044 	2.77555756156289e-17 	1.16064169831084 	0.0411488164784657 	1.04454323870408 	0.00184826138601308
8 	2.23871852454378 	2.77555756156289e-17 	1.16051281811495 	0.0398233524713558 	1.04227446213411 	0.00178481435644231
8 	2.27076279075613 	2.77555756156289e-17 	1.16041923429195 	0.0385728612502293 	1.04262899825869 	0.00172933375105774
8 	2.30167466450941 	2.77555756156289e-17 	1.16035610775865 	0.0373913920626413 	1.0455336011381 	0.00168101384048209
8 	2.33149416271872 	2.77555756156289e-17 	1.1603192698662 	0.036273424131578 	1.05093528669326 	0.00163915912176657
8 	2.36025988816626 	2.08166817117217e-17 	1.16030510012984 	0.0352138769140464 	1.05880111955536 	0.00160317204610508
8 	2.38800907947441 	1.38777878078145e-17 	1.16031044198027 	0.0342081044831828 	1.06911796656093 	0.00157254177261289
8 	2.41477765931295 	1.38777878078145e-17 	1.16033253526985 	0.0332518794847044 	1.08189229556208 	0.00154683410074205
8 	2.44060028090272 	1.38777878078145e-17 	1.16036895937939 	0.0323413706635209 	1.0971500782827 	0.00152568262052378
8 	2.46551037287586 	1.73472347597681e-17 	1.16041758564684 	0.0314731168123331 	1.11493684106088 	0.00150878104991649
8 	2.48954018255081 	2.08166817117217e-17 	1.16047653764604 	0.0306439991347847 	1.13531789729666 	0.00149587669033901
8 	2.512720817678 	1.73472347597681e-17 	1.1605441579112 	0.0298512133807327 	1.15837878934251 	0.00148676491417987
8 	2.53508228671037 	1.38777878078145e-17 	1.16061897997205 	0.0290922426461767 	1.18422596460748 	0.00148128459395142
8 	2.55665353765073 	1.38777878078145e-17 	1.16069970477785 	0.0283648313934682 	1.21298771023825 	0.00147931438672677
8 	2.57746249552636 	1.38777878078145e-17 	1.16078518075201 	0.0276669610061951 	1.24481537254266 	0.00148076979627466
8 	2.59753609853934 	1.38777878078145e-17 	1.16087438685148 	0.0269968270227641 	1.2798848911617 	0.00148560094683072
8 	2.61690033293929 	1.38777878078145e-17 	1.16096641811568 	0.0263528180743599 	1.31839868386929 	0.00149379101549504
8 	2.63558026666389 	1.73472347597681e-17 	1.16106047327918 	0.0257334964725916 	1.36058792594876 	0.00150535528419961
8 	2.65360008179049 	2.42861286636753e-17 	1.16115584409804 	0.0251375803393521 	1.40671527870151 	0.0015203407868345
8 	2.67098310584102 	2.77555756156289e-17 	1.16125190609976 	0.0245639271386275 	1.4570781353367 	0.00153882654256638
8 	2.68775184198056 	2.42861286636753e-17 	1.16134811051873 	0.0240115184517227 	1.51201247006424 	0.0015609243829914
8 	2.70392799814879 	2.08166817117217e-17 	1.16144397721945 	0.0234794458297896 	1.57189739877722 	0.00158678039914643
8 	2.71953251516198 	2.42861286636753e-17 	1.1615390884451 	0.0229668975579943 	1.63716058877085 	0.00161657705542749
8 	2.73458559382185 	2.08166817117217e-17 	1.1616330832564 	0.0224731461724196 	1.70828469254576 	0.00165053604231228
8 	2.74910672106653 	2.08166817117217e-17 	1.16172565254917 	0.0219975365827604 	1.78581502962865 	0.00168892197003498
7.99999999999999 	2.76311469519732 	2.77555756156289e-17 	1.16181653455765 	0.0215394746703917 	1.87036880421831 	0.00173204704312068
8 	2.776627650214 	2.77555756156289e-17 	1.16190551076614 	0.0210984162520422 	1.96264623033755 	0.00178027690377743
8 	2.78966307929018 	3.12250225675825e-17 	1.16199240216349 	0.0206738563237402 	2.06344404685926 	0.00183403789437382
8 	2.80223785741904 	3.81639164714898e-17 	1.16207706578569 	0.0202653185273971 	2.17367205161609 	0.00189382607077363
8 	2.81436826325886 	4.16333634234434e-17 	1.16215939149849 	0.0198723448125316 	2.29437347972041 	0.00196021840626186
8 	2.82607000020647 	3.46944695195361e-17 	1.16223929897947 	0.0194944852967743 	2.4267503142684 	0.00203388677000781
8 	2.83735821672613 	2.77555756156289e-17 	1.16231673486185 	0.0191312883587519 	2.57219497332606 	0.00211561545825175
8 	2.8482475259599 	2.77555756156289e-17 	1.16239167000698 	0.0187822910224229 	2.73233030208432 	0.00220632332017866
8 	2.85875202464506 	2.77555756156289e-17 	1.16246409687334 	0.0184470097083182 	2.909060466477 	0.00230709188176432
8 	2.86888531136304 	2.77555756156289e-17 	1.16253402695069 	0.0181249314280208 	3.10463627267385 	0.00241920137047223
8 	2.87866050414343 	2.77555756156289e-17 	1.16260148822932 	0.017815505474872 	3.32173974271923 	0.00254417724159898
8 	2.88809025744591 	3.46944695195361e-17 	1.16266652267049 	0.0175181356043061 	3.56359463777707 	0.00268385079315372
8 	2.89718677854204 	4.16333634234434e-17 	1.1627291836457 	0.0172321725841081 	3.83411231061256 	0.00284043886667415
8 	2.90596184331818 	4.5102810375397e-17 	1.16278953330584 	0.0169569068026584 	4.13808621668674 	0.00301664967607076
8 	2.91442681151997 	4.5102810375397e-17 	1.1628476398389 	0.0166915603111799 	4.48145430132967 	0.0032158248128331
8 	2.922592641458 	4.5102810375397e-17 	1.16290357456789 	0.0164352771768691 	4.87165741677973 	0.00344213196233547
8 	2.93046990419394 	5.20417042793042e-17 	1.16295740882831 	0.0161871102212427 	5.31813574116779 	0.00370082966611745
8 	2.93806879722526 	5.20417042793042e-17 	1.16300921055295 	0.015946000904427 	5.83302697356095 	0.00399863593853887
8 	2.94539915768638 	4.5102810375397e-17 	1.16305904046237 	0.0157107469119569 	6.43216523859377 	0.00434424894336992
8 	2.95247047508334 	3.81639164714898e-17 	1.16310694772477 	0.0154799481946459 	7.13653770899966 	0.0047490940308829
8 	2.9592919035784 	3.46944695195361e-17 	1.16315296488243 	0.01525191544157 	7.97445445031258 	0.00522841362979915
8 	2.96587227384055 	3.46944695195361e-17 	1.16319710172523 	0.0150245125513462 	8.98485903554466 	0.00580288569897981
8 	2.97222010447726 	3.46944695195361e-17 	1.16323933761855 	0.0147948811864561 	10.2225180971924 	0.00650107119067656
8 	2.97834361306218 	3.46944695195361e-17 	1.16327961152761 	0.0145589496314791 	11.7664102548505 	0.00736318170315753
8 	2.98425072677325 	3.12250225675825e-17 	1.16331780829746 	0.0143105354563528 	13.7337743804688 	0.00844697037986584
8 	2.98994909265477 	2.42861286636753e-17 	1.16335373691169 	0.0140396569638891 	16.3046215505881 	0.0098370266334395
8 	2.99544608751689 	2.42861286636753e-17 	1.16338709265749 	0.0137292437295818 	19.7666303071014 	0.0116593275408631
8 	3.00074882748522 	2.77555756156289e-17 	1.16341740946678 	0.0133484709878674 	24.6023188961822 	0.0141027881014787
8 	3.00586417721304 	2.77555756156289e-17 	1.16344401740266 	0.0128386749728413 	31.6709100020976 	0.0174444000671627
8 	3.01079875876789 	2.77555756156289e-17 	1.16346564466687 	0.0120825383961384 	42.623894886234 	0.0220423697064629
8 	3.01555896020418 	2.42861286636753e-17 	1.16347844493047 	0.0108377790892915 	60.9781463646305 	0.0280960971474197
8 	3.02015094383281 	2.42861286636753e-17 	1.16347503982802 	0.00863837276148733 	95.4910378740148 	0.0342959524245321
8 	3.02458065419861 	2.77555756156289e-17 	1.16345780034063 	0.00504799784462865 	176.1483049109 	0.0342078054064629
8 	3.02885382577582 	2.08166817117217e-17 	1.1634443059855 	0.00146298824468799 	491.442263507322 	0.0207319155733144
8 	3.03297599039165 	1.21430643318376e-17 	1.16344112928381 	0.000156079552981008 	1722.00498969104 	0.00586326477617299
