/*--------------------------------*- C++ -*----------------------------------*\
  =========                 |
  \\      /  F ield         | OpenFOAM: The Open Source CFD Toolbox
   \\    /   O peration     | Website:  https://openfoam.org
    \\  /    A nd           | Version:  7
     \\/     M anipulation  |
\*---------------------------------------------------------------------------*/
FoamFile
{
    version     2.0;
    format      ascii;
    class       volSymmTensorField;
    location    "8000";
    object      bijDelta;
}
// * * * * * * * * * * * * * * * * * * * * * * * * * * * * * * * * * * * * * //

dimensions      [0 0 0 0 0 0 0];

internalField   nonuniform List<symmTensor> 
15600
(
(8.99996500027483e-05 -6.18010651696121e-07 -8.31728751773962e-25 -4.41449685514363e-05 -1.86930650983585e-23 -4.58409277976073e-05)
(0.000113384301595182 -4.35322100274682e-06 -8.64666347678768e-22 -5.56349691373349e-05 2.25019336617508e-23 -5.77320111223768e-05)
(6.87583961977918e-05 -1.13790059951489e-05 -4.62974887334146e-23 -3.31668942426631e-05 -1.21826147009441e-22 -3.55808266396052e-05)
(4.42392050427333e-06 -1.84639657768816e-06 1.17026026812923e-18 -1.92235515155587e-06 -2.75544316202386e-19 -2.50081503317555e-06)
(5.50168511028025e-06 -4.13986935177204e-06 -1.44220344225319e-18 -1.75244796670495e-06 6.70796292646811e-19 -3.74811259734148e-06)
(5.80205621609051e-06 -6.27264790104999e-06 4.82966791088168e-21 -9.5495103150752e-07 -2.76959611553297e-21 -4.84565134379577e-06)
(2.63991459551543e-06 -3.66523162299935e-06 2.29666155607642e-21 1.26296211564521e-08 -1.68958578560266e-21 -2.65174861252771e-06)
(1.61452437304396e-06 -2.64005217380114e-06 3.3069175756805e-20 2.46701705484106e-07 -3.46063980670559e-21 -1.86066782235574e-06)
(1.1422218848588e-06 -2.08801841863461e-06 -1.86398262424483e-19 3.12232121521875e-07 1.76382181200594e-19 -1.45401775742855e-06)
(1.05982708428645e-06 -1.99421961158589e-06 -2.59355413347719e-19 3.26830772664377e-07 1.95590434276207e-19 -1.38624194277657e-06)
(1.06995625785137e-06 -1.96620288234967e-06 -3.63703475578127e-20 3.0088409092272e-07 4.22422737580689e-21 -1.37042917890343e-06)
(1.19449829623897e-06 -2.11037018658184e-06 -5.53331270999584e-25 2.82970207191379e-07 4.16664998786022e-25 -1.4770253515097e-06)
(1.37240533878297e-06 -2.35102234599482e-06 2.06181052332597e-22 2.79230143764698e-07 -1.15307349771843e-23 -1.65114009098122e-06)
(1.66089581738104e-06 -2.78385854706069e-06 9.01550038839951e-21 2.99982629878794e-07 -6.90004693492278e-21 -1.96029030135484e-06)
(2.14173597973554e-06 -3.53674615241493e-06 -7.86291461698632e-21 3.5428313019324e-07 5.94610544841097e-21 -2.49527045392701e-06)
(2.9099600616877e-06 -4.7549528173882e-06 4.13326277750138e-23 4.50846197957315e-07 -8.19821026203534e-24 -3.35979821937517e-06)
(4.02268682318371e-06 -6.46884361530117e-06 -2.90995474661993e-21 5.61124202214371e-07 1.47548334346064e-21 -4.58243615706413e-06)
(5.60929388249324e-06 -8.65975515511652e-06 -6.8923320146961e-21 5.68047346454335e-07 5.18710138249989e-21 -6.17548839714525e-06)
(7.86978120059299e-06 -1.13271463144944e-05 1.35444258258448e-20 3.1418177615205e-07 -7.92890258813484e-21 -8.18150827879161e-06)
(1.09425987101666e-05 -1.42448491783558e-05 1.23054108297852e-20 -4.2258370394407e-07 -9.90686495877944e-21 -1.05168596327954e-05)
(1.48804321034036e-05 -1.69620302367649e-05 1.24511077349053e-21 -1.88841243985115e-06 -7.68127401044383e-22 -1.29881228370187e-05)
(1.98750356705285e-05 -1.91524671616787e-05 8.77725562174196e-22 -4.30558734651118e-06 7.22953868151608e-22 -1.55647784235002e-05)
(2.60075446021728e-05 -2.05859583581312e-05 -2.80208831544916e-20 -7.70098101740713e-06 1.05245510103556e-20 -1.83010727138644e-05)
(3.27678603789454e-05 -2.06680850470731e-05 -3.06428687605526e-20 -1.18292490205892e-05 1.19860163018654e-20 -2.09323310310141e-05)
(3.94544750728198e-05 -1.89187143178933e-05 -1.4331792532559e-20 -1.62467488564945e-05 6.18902891814574e-21 -2.32007652906455e-05)
(4.54042896021531e-05 -1.52605806853243e-05 8.04343087158613e-20 -2.03888454660492e-05 1.24905049066922e-19 -2.50079410034896e-05)
(4.99248192353715e-05 -9.72094642248355e-06 5.37002677748198e-19 -2.36517866257151e-05 8.04106691625804e-20 -2.62651522759403e-05)
(6.12424295390491e-05 -4.3857546102778e-06 7.68692802680027e-19 -2.97673464407869e-05 -2.01388445700498e-19 -3.14656424614601e-05)
(8.59743523026792e-05 -1.69956341641252e-06 2.42652622501253e-20 -4.20852811561408e-05 -1.90120003179651e-19 -4.38759070580121e-05)
(0.000108106096226869 -1.35447291493869e-06 -8.85946117474952e-29 -5.29927060726401e-05 6.60222423934675e-28 -5.50968594433249e-05)
(0.000120784895009558 -1.05097671918164e-06 -3.12092935017346e-20 -5.92138587674041e-05 2.34155718595346e-19 -6.15525686248046e-05)
(0.000128427752190479 -8.23468429719513e-07 1.43125129543224e-18 -6.29634504015009e-05 2.37034565647664e-19 -6.5444666425514e-05)
(0.000131884807541121 -6.53745441356228e-07 1.67859198024896e-18 -6.46595169646149e-05 -2.49660777109488e-19 -6.72051270220437e-05)
(0.000132267041698908 -5.04971197578761e-07 3.28521287925704e-20 -6.48473121154812e-05 -2.47230168141853e-19 -6.73995077089265e-05)
(0.000130118355636331 -3.75953934625709e-07 7.70825787982133e-23 -6.37939993267982e-05 -1.44883051973235e-25 -6.63044629813053e-05)
(0.000125977036718038 -2.61400012912159e-07 7.5730729059833e-23 -6.17636133708633e-05 -7.94895983661227e-26 -6.41941631722052e-05)
(0.000120253665257709 -1.61310947872096e-07 -7.35889846318452e-23 -5.89575006291738e-05 2.77208979084271e-24 -6.12777794561812e-05)
(0.000113313509456264 -7.3966005340802e-08 2.5601991277227e-20 -5.55547572589383e-05 -2.22163529476453e-19 -5.77414280364986e-05)
(0.000105474490025806 6.17078567479414e-10 -1.49689640955638e-18 -5.17113007316392e-05 -2.21272271694823e-19 -5.37470635625249e-05)
(9.70254529945771e-05 6.27079982408963e-08 -1.58015907762747e-18 -4.75687605611051e-05 2.01871454748262e-19 -4.94418583925501e-05)
(8.82225558658698e-05 1.12691749910732e-07 -2.16914163840541e-20 -4.32527367744684e-05 1.99854457435183e-19 -4.49563308433236e-05)
(7.92915445687701e-05 1.51194818230758e-07 1.74777082398939e-23 -3.88739146111972e-05 -4.55355926336421e-24 -4.04055070931584e-05)
(7.04269676440772e-05 1.7907178541904e-07 -4.54006243630184e-23 -3.45276813706018e-05 -1.16501015219013e-25 -3.58885186411199e-05)
(6.17927368021731e-05 1.9733334192085e-07 7.07828527037674e-23 -3.02944018792e-05 2.53155850380777e-25 -3.14888873120184e-05)
(5.35231189811368e-05 2.07108712050261e-07 -1.40180295795568e-23 -2.62399052846056e-05 -2.02595815938252e-24 -2.72750303690878e-05)
(4.57243530642754e-05 2.09570157973459e-07 -1.38078497523059e-20 -2.24162781968761e-05 1.6147188264822e-19 -2.3301083843144e-05)
(3.8476866848244e-05 2.05892754499926e-07 1.04367906334086e-18 -1.88629518033172e-05 1.58362043604433e-19 -1.96080320470129e-05)
(3.18377940480818e-05 1.97205922543752e-07 1.00752816232231e-18 -1.56079362150074e-05 -1.27110233696683e-19 -1.62249898493213e-05)
(2.58437510804265e-05 1.84567086279843e-07 9.96647612021195e-21 -1.26691820056452e-05 -1.23861585538535e-19 -1.31706174943749e-05)
(2.0513644233418e-05 1.6893840542131e-07 -1.33655119993065e-23 -1.00559566857634e-05 -7.51325649173341e-25 -1.04545508687261e-05)
(1.58514369469005e-05 1.51177055414056e-07 2.0029046581841e-23 -7.77020153765633e-06 -3.92937040953414e-25 -8.07881152339858e-06)
(1.18487621855502e-05 1.32029096484963e-07 -5.9453250088081e-21 -5.80781250921831e-06 8.60523745940303e-20 -6.03913775381353e-06)
(8.48733326848457e-06 1.12131625116575e-07 4.80397114642901e-19 -4.15982224172399e-06 8.1221057197695e-20 -4.32621303305129e-06)
(5.74110700562141e-06 9.20168218643077e-08 4.09408765563741e-19 -2.81346065650793e-06 -5.27572603358913e-20 -2.9267682308324e-06)
(3.57818132215192e-06 7.21205666857885e-08 3.77414849134122e-21 -1.75308536671134e-06 -4.80877959068384e-20 -1.8245485361378e-06)
(1.96243760622077e-06 5.27904152179076e-08 1.50601765327544e-26 -9.60986786249579e-07 -1.07760583314136e-25 -1.00115044480024e-06)
(8.54911246837597e-07 3.43135429773171e-08 -4.19642605267764e-28 -4.18059038579496e-07 3.72876029958152e-26 -4.36721178801515e-07)
(2.14943669662777e-07 1.68850200629318e-08 -1.49559741939037e-25 -1.04366166037435e-07 -4.10681533471757e-26 -1.10544337007578e-07)
(1.08714703148244e-09 5.92216488095678e-10 -1.4404379988843e-26 4.10477608268258e-10 -3.63694369375362e-26 -1.49717544219828e-09)
(1.71864146692667e-07 -1.45277881637906e-08 -5.8350937175362e-26 -8.33931479846099e-08 -2.04544148538059e-26 -8.84444627156433e-08)
(6.86319227630026e-07 -2.83737108409241e-08 -2.37798766283354e-25 -3.35694939699651e-07 6.16494732597355e-26 -3.50519121677247e-07)
(1.50442829660288e-06 -4.08277596388573e-08 1.39974604919245e-24 -7.36872721904963e-07 -8.96591153320996e-26 -7.67325354069632e-07)
(2.58740752751844e-06 -5.18859051333494e-08 5.13770890640959e-25 -1.26791129993492e-06 -7.71806892148763e-26 -1.31910045786919e-06)
(3.89788498883456e-06 -6.15682566809508e-08 -2.30054820334277e-24 -1.91048680496755e-06 1.18318193358821e-25 -1.98680208363189e-06)
(5.40002974855049e-06 -6.98985288423296e-08 -9.71060020330363e-27 -2.64703159160756e-06 -1.9120213308135e-25 -2.7521724226427e-06)
(7.05957256017436e-06 -7.69134270414606e-08 -4.48925160433902e-24 -3.46074401750228e-06 2.67200499074391e-25 -3.59774910999582e-06)
(8.84378992849749e-06 -8.26565824802491e-08 5.0324199595757e-24 -4.33558030998595e-06 1.97793802519862e-25 -4.50685742606448e-06)
(1.07214310678092e-05 -8.71755203090598e-08 -1.35362204486062e-26 -5.2562187746382e-06 -2.6855253341799e-25 -5.46357305733021e-06)
(1.26626144494128e-05 -9.05189105932634e-08 0 -6.20800906001591e-06 0 -6.45266939497891e-06)
(1.46386810323617e-05 -9.27336116940927e-08 0 -7.17690020683277e-06 0 -7.45954273889862e-06)
(1.66220358729942e-05 -9.38638733666332e-08 0 -8.14936296707138e-06 0 -8.47013161230976e-06)
(1.85859366230458e-05 -9.39471850242582e-08 8.15569774372039e-21 -9.11228613718331e-06 1.18223397850813e-19 -9.47080895902213e-06)
(2.05043062851123e-05 -9.30168029988251e-08 7.78680313177736e-19 -1.00528846953164e-05 2.44279702664755e-19 -1.04482867902788e-05)
(2.23514373976887e-05 -9.10928081412833e-08 1.54673272857626e-18 -1.09585548567683e-05 -7.02625682356504e-21 -1.13894653595943e-05)
(2.41018177529575e-05 -8.81933089077549e-08 7.57735716854446e-19 -1.181678846236e-05 -2.71548370865936e-19 -1.22813445187646e-05)
(2.57296708793298e-05 -8.43104736428498e-08 -1.11747243664756e-20 -1.26149479420885e-05 -1.38436780465343e-19 -1.31107893070862e-05)
(2.72089112697937e-05 -7.9447250750355e-08 3.54698288878225e-23 -1.33402439035999e-05 1.61580989795249e-24 -1.38645075979376e-05)
(2.85122871262874e-05 -7.35487955572181e-08 -1.00977048573404e-23 -1.39793155723243e-05 3.24726707946353e-26 -1.45286125343008e-05)
(2.9611842761958e-05 -6.66153535529094e-08 1.48151473652098e-20 -1.45184562473509e-05 1.51369003158583e-19 -1.50888594040748e-05)
(3.04769424761707e-05 -5.85085709730824e-08 8.85699176725239e-19 -1.49426466504909e-05 1.50932581037689e-19 -1.55296364688034e-05)
(3.10768743620591e-05 -4.92693677601526e-08 7.9449390817776e-19 -1.52368277448472e-05 -1.56327958935664e-19 -1.58352955534395e-05)
(3.13741397643116e-05 -3.87433753779348e-08 -1.62382259826905e-20 -1.53826151616503e-05 -1.54811811737365e-19 -1.59867281045802e-05)
(3.13388203841006e-05 -2.72806905183736e-08 3.8535207882865e-23 -1.53653354012887e-05 -1.92332057960585e-24 -1.59686938955345e-05)
(3.09286144714889e-05 -1.38534798996193e-08 -1.8941385942043e-23 -1.5164253012868e-05 1.6261439342906e-26 -1.57596330958559e-05)
(3.01049912025913e-05 8.49559421457568e-10 -1.99867702547678e-23 -1.47604632069409e-05 -6.43694079689567e-26 -1.53399255577393e-05)
(2.88014305812583e-05 1.89443429151323e-08 -1.3289437276567e-22 -1.41213619017631e-05 5.38184134529043e-24 -1.46756655395193e-05)
(2.69849369307694e-05 3.7587225554136e-08 2.04315876451963e-22 -1.32307370523286e-05 4.18188386554271e-25 -1.37500744435642e-05)
(2.45596759329071e-05 6.18861195584939e-08 -7.20659613436393e-23 -1.20416195848826e-05 -1.05634551616895e-23 -1.25143016820533e-05)
(2.15395355502188e-05 8.34858561416095e-08 -6.58616441748503e-23 -1.0560725566299e-05 9.47634185570463e-24 -1.09755169995215e-05)
(1.77831595303718e-05 1.15156296833458e-07 1.74093957111204e-22 -8.71873902686274e-06 4.35519690292596e-24 -9.06170172111448e-06)
(1.35093318469338e-05 1.35707795034103e-07 -7.39030595849235e-25 -6.62260274719141e-06 -5.23577591143969e-24 -6.88466349413357e-06)
(8.44349622516463e-06 1.63119072771613e-07 3.80968644126094e-23 -4.13493887888838e-06 8.527964797097e-25 -4.30726503753412e-06)
(3.72102897535216e-06 2.87922507045056e-07 5.76903019756358e-27 -1.8099431060727e-06 1.47972067989445e-24 -1.9105126581609e-06)
(2.80872735657013e-06 5.02710394123036e-07 8.93612368420837e-23 -1.33877302632514e-06 -3.18810582976302e-22 -1.46951343212554e-06)
(3.53050115475797e-06 1.1833337461365e-06 -7.41467836181266e-21 -1.58916354423903e-06 -1.57889759870498e-21 -1.94075532569276e-06)
(4.39448007488806e-06 2.10479088326769e-06 7.20139593383083e-21 -1.81339323014927e-06 1.80358636085106e-21 -2.58031267351961e-06)
(5.62793951730448e-06 3.56033453563778e-06 -3.10603918172703e-20 -2.03126307113643e-06 -1.28166638815225e-20 -3.59559765899163e-06)
(7.03532986864337e-06 5.55912181193677e-06 -1.96514581557436e-20 -2.09110454064269e-06 -7.23126405499829e-21 -4.94274235699648e-06)
(8.64356216338546e-06 8.26219911693724e-06 1.83019013890241e-20 -1.90986561967565e-06 9.94254582936775e-21 -6.7316768386877e-06)
(1.07449613488575e-05 1.20121878178826e-05 -1.87933966187715e-20 -1.49526617880292e-06 -1.14390872194638e-20 -9.24692081637431e-06)
(1.32896420172054e-05 1.6790943166284e-05 -2.24907450643858e-22 -8.07693580289013e-07 1.91055068469242e-21 -1.24782046011525e-05)
(1.62414001541622e-05 2.24357314501976e-05 2.12775372511745e-20 8.99381948471982e-08 1.36603626983714e-20 -1.6326439927189e-05)
(1.96031277718125e-05 2.8802270617346e-05 -1.64240471447133e-20 1.10290356892229e-06 -1.3040811130846e-20 -2.0699820773446e-05)
(2.35399116073523e-05 3.58128151470943e-05 1.32129195493438e-21 2.04231682034523e-06 -2.97467264251253e-23 -2.5574555293796e-05)
(2.73624380214378e-05 4.23493806996128e-05 -1.92161771805222e-20 2.80340037991286e-06 -1.53294300030956e-20 -3.01567904594186e-05)
(3.02445781527398e-05 4.75696269891532e-05 -1.82488297735867e-21 3.55890539121318e-06 -1.21512341079621e-21 -3.37933445266933e-05)
(3.23466018475258e-05 5.20402581603736e-05 -1.45524576316327e-21 4.51440668368265e-06 -9.50096655985492e-22 -3.68499524398674e-05)
(3.39177704343927e-05 5.62153492072441e-05 -1.07069343293498e-21 5.74103517250206e-06 -6.69631573102444e-22 -3.96469103442652e-05)
(3.53033180252033e-05 6.06325889088823e-05 -1.85728383847047e-20 7.28205724340351e-06 -1.32281330811925e-20 -4.25726022106378e-05)
(3.71584923801781e-05 6.63939143729968e-05 -1.45733775864501e-21 9.2567229133235e-06 4.90846538154772e-23 -4.64012935132696e-05)
(4.21523281817532e-05 7.69925472110524e-05 -1.20052768478079e-20 1.15173333746989e-05 -1.10384629484225e-20 -5.3653563877521e-05)
(5.34412000909159e-05 9.45955047701405e-05 -1.38447070937913e-20 1.26625249373489e-05 -1.12322356375956e-20 -6.60838978761867e-05)
(7.38286751560784e-05 0.000119260355935832 1.27473605680223e-20 1.03906560146666e-05 1.07646291288417e-20 -8.41940704235433e-05)
(0.000113824407572792 0.000156725259488894 2.57261081525161e-21 -1.60285630940034e-07 7.86013730986151e-22 -0.000113630029523753)
(0.000191047726691486 0.000207281810302312 -3.11001163318694e-20 -3.10603367792757e-05 -1.9155795023168e-20 -0.000159939403292561)
(0.000332036437209776 0.000250736185840958 1.5829883448183e-20 -0.000105849294254902 8.06223964756237e-21 -0.000226119300380503)
(0.000407604579599721 0.000179193851266936 1.51959231534888e-21 -0.000175225072276748 4.13781809136204e-22 -0.000232309807410759)
(0.000288611583922343 5.81672086441462e-05 1.01429945055455e-22 -0.000138198496351217 -2.22197724637686e-22 -0.000150367972667835)
(0.000133598940842244 6.75776983001179e-06 -8.13676607982626e-22 -6.55701421628099e-05 -3.20673054463201e-23 -6.80083941207424e-05)
(8.06394833829271e-05 -3.85976287391088e-07 -1.87158487019582e-25 -3.95542355206319e-05 1.53457440255422e-23 -4.10729247525585e-05)
(0.0017556292242857 -6.37371368263614e-06 7.480609371971e-24 -0.000862102509433844 -1.48487796054621e-25 -0.000893258710438285)
(0.0016892492870924 -5.15633580938783e-05 2.42596786731495e-20 -0.000832362808043404 -4.30795917623786e-22 -0.000856629464508194)
(0.0012719569411673 -0.000153841574948793 6.61131844899901e-19 -0.000621735444567274 2.16882066037905e-18 -0.000650026469156533)
(0.000449696126912513 -0.000119363700763307 -2.99488414502507e-17 -0.000209615091841395 5.45923191551159e-18 -0.000240009025162578)
(1.13816493252081e-07 -2.91933480235821e-06 1.69798450357602e-18 3.66479222891991e-06 -4.84599116078761e-18 -3.77747536622653e-06)
(5.1341437653689e-05 -6.65786428313969e-05 9.21708364669841e-19 -2.7797314718206e-06 1.19999923586886e-19 -4.85471405831336e-05)
(3.252639088047e-05 -5.02028572383343e-05 -4.23226907705013e-20 2.85617071970442e-06 3.11467563307186e-20 -3.53719489542236e-05)
(2.23892329279709e-05 -4.04714140572246e-05 -8.67305505037453e-19 5.68455603079166e-06 5.0899993923543e-20 -2.80653685061654e-05)
(1.76499566855874e-05 -3.53499589255863e-05 -1.19856121273668e-17 6.73725021011115e-06 9.47549463199048e-18 -2.43798921965697e-05)
(1.74562108741438e-05 -3.55918406738646e-05 -1.12173522940423e-17 7.14291093902311e-06 1.03203057195367e-17 -2.45917435522751e-05)
(1.91271306659077e-05 -3.73172119242977e-05 1.14378844960305e-18 6.78962702921855e-06 -1.38111799254702e-19 -2.59089842225123e-05)
(2.25315390081968e-05 -4.17696182215136e-05 6.16354617067997e-24 6.61103512014657e-06 -5.01349575785841e-24 -2.91338331043097e-05)
(2.72769555295038e-05 -4.85266729542535e-05 6.6233898522375e-21 6.70904175580934e-06 -4.21498949503033e-22 -3.39758035248796e-05)
(3.42260563907254e-05 -5.92602922494777e-05 -1.90988655341841e-19 7.38643595513495e-06 1.41550835048455e-19 -4.16000110944069e-05)
(4.44312141195631e-05 -7.57870684691692e-05 -1.19695900839113e-19 8.86248226401441e-06 8.83207011377902e-20 -5.32777114716448e-05)
(5.83858784818862e-05 -9.90605293483015e-05 1.12971582930198e-20 1.13184800709875e-05 -3.84651547237491e-22 -6.9683451426733e-05)
(7.64922065978274e-05 -0.000128228210850154 -1.41810720997697e-19 1.39543273216584e-05 1.23724739695225e-19 -9.04194053850168e-05)
(0.000100366825898877 -0.000161612028186086 3.8760487603725e-19 1.44489480309614e-05 -2.87908016467495e-19 -0.000114781336085228)
(0.000131495375390122 -0.000196971573845487 -2.39248163833325e-19 1.03591743993083e-05 1.62764234111779e-19 -0.000141812001934065)
(0.000171154804349092 -0.000230412852020059 -2.45382240766695e-19 -1.23619150968952e-06 1.89937472822064e-19 -0.000169867647448629)
(0.000221553671346523 -0.000258062482897066 3.1259028618472e-19 -2.33898640043517e-05 -2.19098181015492e-19 -0.00019810437008742)
(0.00028403614574946 -0.000276157484926957 -2.07445740414972e-19 -5.76938799042706e-05 6.80198726415274e-20 -0.000226274376743256)
(0.000355479818433951 -0.000280936411353211 2.74042458297983e-19 -0.000101924291636186 -1.05684608649008e-19 -0.000253479475350015)
(0.000431791522515199 -0.000268885259705385 5.41370272446269e-19 -0.000152719633875872 -1.97208962058645e-19 -0.000278988183813701)
(0.000508297858654505 -0.000237857341239797 2.40824338142205e-22 -0.00020570461875062 1.39783019899346e-20 -0.000302502480083878)
(0.000582864500680028 -0.000189479262844696 -1.29327774088366e-18 -0.0002569160732483 -1.90976176885239e-18 -0.000325850662456494)
(0.000669806263013222 -0.000127054386677163 -5.36296549321816e-17 -0.000311239141032764 4.97051977736922e-18 -0.000358459573353589)
(0.000722702268317056 -6.14804705429864e-05 -5.26656437208517e-17 -0.000346149528325717 5.95212679928284e-18 -0.000376439796757988)
(0.000761246102922375 -2.71899020189766e-05 -1.74634392664312e-19 -0.000370426912389442 2.11117677672152e-18 -0.000390701968220235)
(0.000790564633196855 -1.42434442326718e-05 1.40895347234725e-27 -0.000386808455090773 -1.31294788019854e-26 -0.000403635075473177)
(0.00079369327317117 -5.13881316490673e-06 2.56224233874988e-19 -0.000388687707932732 -2.11464692468125e-18 -0.000404884087864342)
(0.000775843623863523 7.82305940816042e-07 -5.83583944339523e-17 -0.000380119326149961 -1.98917230191601e-18 -0.000395605604162958)
(0.000744757444004055 4.90497060086028e-06 -5.86289731190937e-17 -0.000364942398248815 1.806234247035e-18 -0.00037970112402586)
(0.00070431562821675 7.86497356349396e-06 -2.82132814997279e-19 -0.000345130705949477 1.96407722335376e-18 -0.00035907718833738)
(0.000657307382499387 9.95509497917585e-06 1.12509090027485e-23 -0.000322079353380704 1.31202367757279e-22 -0.000335127480819608)
(0.000606084830716696 1.13840754031708e-05 4.08160279877918e-23 -0.000296952303735781 -8.14326892985911e-23 -0.000309039805767063)
(0.000553251832398354 1.23016262659304e-05 -2.14583112792555e-23 -0.000271031321655195 -4.05701040981877e-23 -0.00028213586151978)
(0.000499936779469846 1.27994025271778e-05 -2.28389236251802e-19 -0.000244873042189316 1.57294315381185e-18 -0.00025498723346011)
(0.00044708044795844 1.29474730002556e-05 4.44834829893661e-17 -0.000218940882912228 2.66627706756803e-18 -0.000228071136862335)
(0.000395469494382518 1.28041993665654e-05 4.31483802997378e-17 -0.000193621614445286 -1.24124902746085e-19 -0.000201787337681702)
(0.000345752479303071 1.24206672090082e-05 2.00519991401514e-19 -0.000169233813119727 -1.3083097922728e-18 -0.000176465721172491)
(0.000298460165869677 1.18424028764293e-05 -3.24501876452475e-22 -0.000146037975240051 -1.21384034814414e-23 -0.000152376473115939)
(0.000254019086091926 1.11106043864431e-05 4.11749623233223e-22 -0.000124243258474326 4.49460964225215e-23 -0.000129736902654308)
(0.000212764019649856 1.02621680810053e-05 -3.81561081859557e-22 -0.000104013687296556 -3.72651070494392e-24 -0.000108717713777309)
(0.00017494848203505 9.33000641779172e-06 2.64089861382537e-22 -8.54733339097228e-05 -2.30558796570648e-23 -8.94483109483252e-05)
(0.000140754171114264 8.34299976323107e-06 1.60314124648302e-19 -6.87109968143646e-05 -9.64920137621181e-19 -7.20215656693354e-05)
(0.000110299441339245 7.32618385225959e-06 -2.55815130890432e-17 -5.37843801239148e-05 -2.48765987277639e-18 -5.64981100871908e-05)
(8.36469808446496e-05 6.30087310567453e-06 -2.30218857117644e-17 -4.07238836091341e-05 -8.97302539963255e-19 -4.29102228812157e-05)
(6.0810827813325e-05 5.28491012483435e-06 -1.32546517262171e-19 -2.95360578498597e-05 6.42346736235522e-19 -3.12653894085872e-05)
(4.17627688743305e-05 4.29292324776203e-06 9.11967562205379e-23 -2.02067543484918e-05 1.87482390694682e-23 -2.15495490145832e-05)
(2.64382023853461e-05 3.33663949936641e-06 -7.31506073035958e-23 -1.27040075598217e-05 -1.16090995766137e-23 -1.37300753909636e-05)
(1.47415030825633e-05 2.42519626045466e-06 1.10095988069062e-19 -6.98067059696063e-06 -3.37767623915436e-19 -7.75850470141381e-06)
(6.55091985469971e-06 1.56546947047668e-06 -6.44259644077886e-18 -2.97681832717253e-06 -1.75955727540523e-18 -3.57302951147213e-06)
(1.72303301860427e-06 7.62385902843327e-07 -3.4378255850244e-18 -6.2193344440229e-07 -1.40375893725968e-18 -1.10076931038248e-06)
(9.67844114687956e-08 1.92253212445431e-08 -9.19136994060819e-20 1.63118903062173e-07 1.24378767047671e-21 -2.5982535912769e-07)
(1.49709785536239e-06 -6.62115117428717e-07 2.56765140285014e-25 -5.356800763417e-07 3.38826640524068e-25 -9.61129411360514e-07)
(5.73810495923614e-06 -1.28084471828566e-06 2.55317586277021e-25 -2.62710644800849e-06 7.15826962045461e-25 -3.11006539829686e-06)
(1.2626076569872e-05 -1.83635855296461e-06 2.34715428046547e-23 -6.01614801135816e-06 -3.62275705085523e-24 -6.60794597646274e-06)
(2.19619369536209e-05 -2.32659698199866e-06 -2.91024851323062e-23 -1.06052884505156e-05 1.96549309471548e-24 -1.1353242189817e-05)
(3.35431206946806e-05 -2.75225372041678e-06 1.22448365677872e-23 -1.62950421550048e-05 -9.86350438459364e-25 -1.72429051507917e-05)
(4.71654162419048e-05 -3.11828005815649e-06 -3.55974798378373e-25 -2.29849690723854e-05 2.277709082166e-26 -2.41731944859053e-05)
(6.26246517832579e-05 -3.42762657484467e-06 -3.21754351276753e-23 -3.05749579450932e-05 4.70603181837429e-24 -3.20400808526104e-05)
(7.97179261548159e-05 -3.68198332852238e-06 6.04798437323241e-23 -3.89656000100377e-05 -6.10265744644189e-24 -4.07401028915854e-05)
(9.82444319930618e-05 -3.88341067032972e-06 -2.26200245693714e-24 -4.80584342772208e-05 -2.86891852417193e-24 -5.0170944927084e-05)
(0.000118005964017859 -4.03413557497695e-06 -2.6781335296519e-23 -5.77562809262997e-05 4.1460539251693e-24 -6.02316118008903e-05)
(0.000138807354852759 -4.13625695370078e-06 9.71538583110643e-23 -6.79634591666016e-05 -2.89078589542815e-24 -7.08226467672356e-05)
(0.000160456606804243 -4.19167280169174e-06 -1.68175316911476e-22 -7.85858433117745e-05 4.40109448888516e-24 -8.18462071746846e-05)
(0.000182764790621009 -4.20203846125172e-06 6.88033966647495e-23 -8.95308129580325e-05 -1.59025269495683e-24 -9.32060130625975e-05)
(0.000205545726048817 -4.16872373860398e-06 -7.36838882768799e-23 -0.00010070709474931 1.50806321065127e-24 -0.000104807185999177)
(0.000228615421126635 -4.09276433151297e-06 -1.62787749709407e-25 -0.000112024486720819 2.95348780702235e-27 -0.000116555964119552)
(0.000251791310204372 -3.9748327648452e-06 -8.13700053917619e-23 -0.000123393482527462 2.0457135506917e-23 -0.000128359316030936)
(0.000274891192470499 -3.81516457548172e-06 -1.47712691605159e-19 -0.000134724750750441 -1.662540536358e-18 -0.000140124400195847)
(0.000297731995786132 -3.61355120260227e-06 -4.86724362243687e-17 -0.000145928524741022 -2.87618506319132e-18 -0.000151757939110184)
(0.000320128073427411 -3.36919295829766e-06 -1.00001892214693e-16 -0.000156913768827712 1.07184268931179e-18 -0.000163165350099219)
(0.000341889423308733 -3.08076399013358e-06 -5.11693682874175e-17 -0.000167587295836402 4.22064384521633e-18 -0.000174249847290126)
(0.000362818997647271 -2.74606417459563e-06 1.80614119754992e-19 -0.000177852454425872 1.9363313331006e-18 -0.000184911064354205)
(0.000382710314467604 -2.362331515488e-06 -8.49174394222973e-22 -0.000187607934423507 7.77888507817417e-23 -0.000195043861033886)
(0.000401342973701022 -1.92533811711579e-06 4.5317999244775e-22 -0.000196745590154844 2.25724190767113e-23 -0.000204536016604503)
(0.00041847978922616 -1.43049828828245e-06 -2.25215100369994e-19 -0.000205148979377011 -2.13471183066788e-18 -0.000213266823403484)
(0.000433858859891955 -8.70520488207287e-07 -5.91434238672322e-17 -0.000212689524692673 -2.05534611300593e-18 -0.000221102997666229)
(0.000447191408915696 -2.38711683395775e-07 -5.91818518951194e-17 -0.000219225439408592 2.28256231275789e-18 -0.000227897593391475)
(0.000458019250763559 4.75315237539259e-07 2.45470388899494e-19 -0.000224531886229895 2.2751997384542e-18 -0.000233417332330744)
(0.0004657235310842 1.27532042908085e-06 -1.94923039348763e-22 -0.000228304438301731 2.87353082616146e-23 -0.000237347881296932)
(0.000469965446754191 2.18629118577129e-06 1.4782357492127e-21 -0.00023037616533106 -5.22735725473257e-23 -0.000239517419011187)
(0.000470370908602515 3.21898791230067e-06 -1.31499839348689e-21 -0.000230562028386945 -1.23080984210303e-22 -0.000239736951937161)
(0.000466223188860492 4.42307163434805e-06 1.42507152240033e-21 -0.000228509512073471 1.28768489911549e-22 -0.000237642376943954)
(0.000456820032950443 5.78892896102341e-06 -3.39236473074428e-21 -0.000223870073134745 1.82054226181747e-23 -0.000232880088801956)
(0.000440970887823455 7.41684318499321e-06 1.97351079100692e-21 -0.000216056717745687 -2.67599145937663e-23 -0.000224846709318897)
(0.0004177360777865 9.23879200112404e-06 1.96414391403201e-21 -0.000204597155242868 1.0135459361882e-22 -0.000213074993652646)
(0.000385030913753673 1.14713006944138e-05 -3.22305096356393e-21 -0.000188454738088958 -9.09701972418198e-23 -0.000196517214604228)
(0.000341385527877023 1.39075865517214e-05 6.60708325968635e-25 -0.000166872253249412 5.34595542501564e-24 -0.000174460931113925)
(0.000283002068975865 1.66782675796508e-05 3.78955623676533e-23 -0.000137757514408888 2.21739009022455e-24 -0.000145200989913537)
(0.000223706746022527 2.38194547711679e-05 1.58925948646262e-20 -0.000107747335326373 1.31440906433207e-21 -0.000115924629829119)
(0.000194870510957756 3.57102603529706e-05 1.23083711888061e-19 -9.19582162226853e-05 1.52043825172384e-20 -0.000102881427220153)
(0.00018160419693469 5.38376829930183e-05 2.5511324065176e-19 -8.21624282650611e-05 6.01445405523694e-20 -9.9411942104341e-05)
(0.00018075020507908 7.4869481906727e-05 -8.55662164459624e-20 -7.67206125043059e-05 -4.54219147273296e-20 -0.000103998389937529)
(0.000182158164663813 9.95912191010575e-05 4.61944592768843e-19 -6.99401371188966e-05 1.43180418765132e-19 -0.000112184368868388)
(0.000185576055256325 0.000127849306142601 4.24613374956207e-19 -6.14955467773528e-05 1.96340732155574e-19 -0.00012404329176977)
(0.000189716012814255 0.000160237065188992 -4.18578550747014e-19 -5.02527304711043e-05 -2.0216027623271e-19 -0.000139421451724571)
(0.000196362079934321 0.000198353254075548 4.16186273934243e-19 -3.66067731963893e-05 2.11584153945185e-19 -0.000159707389729312)
(0.000206849337010172 0.000243168290090724 -3.87783632367892e-19 -2.10400097710407e-05 -2.38522738430718e-19 -0.00018575359558729)
(0.000222225477046746 0.000294513297332349 -3.61830806931783e-19 -4.61088966198476e-06 -2.3992006445887e-19 -0.00021754931606281)
(0.000242259304480644 0.000351717126403516 1.49676349062075e-19 1.21494888313828e-05 1.06758084831718e-19 -0.000254332485935509)
(0.000268293685490118 0.000414568847241442 -1.83463798892545e-19 2.77651496922963e-05 -1.17562758940096e-19 -0.000295970035291838)
(0.00029910123469309 0.000479585842358711 3.11883385175083e-19 4.11328966932551e-05 2.50877673187979e-19 -0.000340132081556895)