/*--------------------------------*- C++ -*----------------------------------*\
  =========                 |
  \\      /  F ield         | OpenFOAM: The Open Source CFD Toolbox
   \\    /   O peration     | Website:  https://openfoam.org
    \\  /    A nd           | Version:  7
     \\/     M anipulation  |
\*---------------------------------------------------------------------------*/
FoamFile
{
    version     2.0;
    format      ascii;
    class       volScalarField;
    location    "8000";
    object      nut;
}
// * * * * * * * * * * * * * * * * * * * * * * * * * * * * * * * * * * * * * //

dimensions      [0 2 -1 0 0 0 0];

internalField   nonuniform List<scalar> 
15600
(
1.62479894876071e-07
1.4838226037472e-07
8.62852340318687e-08
3.36842472882014e-08
8.15133508410789e-09
5.31091311144638e-09
5.50793284512568e-09
4.37159375129293e-09
3.7163625275504e-09
3.59928765122051e-09
3.75895671993246e-09
4.14724232562167e-09
4.82880202609853e-09
5.93137928020969e-09
7.67784248735311e-09
1.03184122752686e-08
1.42014942587344e-08
1.981070429875e-08
2.78548941790653e-08
3.92089041648306e-08
5.48058781929227e-08
7.54692047649713e-08
1.01944726478758e-07
1.34290136227201e-07
1.70849202133179e-07
2.08855603525528e-07
2.44070212313677e-07
2.7206734166356e-07
3.38685978184647e-07
4.31845660270272e-07
5.11425783903224e-07
5.81004755041562e-07
6.44573282338399e-07
7.02929230997023e-07
7.55733433939493e-07
8.02469106398545e-07
8.43993324440096e-07
8.80338898512699e-07
9.11632628557492e-07
9.38026309327396e-07
9.59716928171219e-07
9.76942302585131e-07
9.89977832773929e-07
9.991252754063e-07
1.00470457648914e-06
1.00704332687911e-06
1.00646909269487e-06
1.00330188831988e-06
9.97848884630074e-07
9.90400074033795e-07
9.81225587641275e-07
9.70573792520243e-07
9.58670605954875e-07
9.45719333685575e-07
9.31901301329965e-07
9.17376659131688e-07
9.02285975566206e-07
8.86750833145775e-07
8.70873631694925e-07
8.54744970716212e-07
8.3843871735577e-07
8.22015875653985e-07
8.05528878711299e-07
7.89017366770553e-07
7.72511506793908e-07
7.56033612046666e-07
7.39598512099528e-07
7.23214229401844e-07
7.06882527475786e-07
6.90599278630651e-07
6.74354861435798e-07
6.58134143855475e-07
6.41916790872784e-07
6.25676664470721e-07
6.09382274814531e-07
5.92995058366481e-07
5.76470632697624e-07
5.59754602463526e-07
5.42786357583716e-07
5.25489366591726e-07
5.07789196152565e-07
4.89484029121097e-07
4.70672272737099e-07
4.51400616680001e-07
4.31443447544248e-07
4.10414083724179e-07
3.88074523609146e-07
3.63881299927492e-07
3.37568788658608e-07
3.08332925160748e-07
2.75122399937297e-07
2.33221342575933e-07
2.09513933799994e-07
2.27400098790889e-07
2.41597859238367e-07
2.52951382282836e-07
2.55927181604972e-07
2.52581577473165e-07
2.45395485805748e-07
2.37533223883884e-07
2.28226239389701e-07
2.18947043671603e-07
2.09809800940547e-07
2.0089920138044e-07
1.89116706498827e-07
1.7521345000769e-07
1.60230051260154e-07
1.4499345158727e-07
1.30529710587663e-07
1.18453047119443e-07
1.11757308004239e-07
1.10362625217701e-07
1.15788450233263e-07
1.32847977556612e-07
1.65925890471518e-07
2.10184073502171e-07
2.04533476569521e-07
1.70270072132596e-07
1.40255352991484e-07
1.5272404468225e-07
1.30365617104664e-05
1.19256543203569e-05
6.85612029110472e-06
2.84848304491652e-06
7.52772849337344e-07
4.96663161588175e-07
5.16861089210633e-07
4.12179245659671e-07
3.48579429546224e-07
3.36000263482202e-07
3.49377027184088e-07
3.83802665206531e-07
4.44776741478783e-07
5.43236418001607e-07
6.98729752965661e-07
9.3309174284361e-07
1.27752353283187e-06
1.77298268414962e-06
2.4799956765264e-06
3.47387902577955e-06
4.83172004583502e-06
6.6044938259479e-06
8.83642592575985e-06
1.15200033083009e-05
1.44871844544268e-05
1.74709098632598e-05
2.00186409738518e-05
2.15810752558847e-05
2.61789464903378e-05
3.28481505627609e-05
3.84015739777107e-05
4.31094387699352e-05
4.73333948531195e-05
5.11394113116805e-05
5.45183912655487e-05
5.74410045329769e-05
6.00356726708585e-05
6.23126122814067e-05
6.42865218154194e-05
6.59708701650321e-05
6.73797675978167e-05
6.85281028283022e-05
6.94317542297921e-05
7.01072848146283e-05
7.05717663956663e-05
7.08424241412683e-05
7.09363910403875e-05
7.08704272215784e-05
7.06607208604954e-05
7.03227083523227e-05
6.98709566657454e-05
6.93190669210954e-05
6.86796284702864e-05
6.79641908587578e-05
6.71832721601774e-05
6.6346373748678e-05
6.54620381009212e-05
6.45378510737553e-05
6.35803757486679e-05
6.25955845205333e-05
6.15885524629764e-05
6.0563603267925e-05
5.95245713855781e-05
5.84745519500423e-05
5.74160619123987e-05
5.63511235957304e-05
5.52812775996255e-05
5.42076131181764e-05
5.3130792128253e-05
5.20510636711458e-05
5.09682801433203e-05
4.98818887770905e-05
4.87909417016396e-05
4.76940500583848e-05
4.65893995404685e-05
4.54746303621338e-05
4.43468956175493e-05
4.32025766389375e-05
4.20374878421945e-05
4.08462227540736e-05
3.96233504427427e-05
3.83495575234614e-05
3.70234923129336e-05
3.56531001369066e-05
3.42263688727466e-05
3.27131996341461e-05
3.10945368413067e-05
2.93245133930603e-05
2.73799696123339e-05
2.51896616620114e-05
2.26555274809783e-05
1.93934921073548e-05
1.76828801103457e-05
1.94839173663814e-05
2.07102485073023e-05
2.16583544248438e-05
2.1918368594014e-05
2.16706147410566e-05
2.11137407810863e-05
2.04825187243523e-05
1.96993176292059e-05
1.88986071841688e-05
1.80911114903071e-05
1.72791813268731e-05
1.6218596586932e-05
1.5012876410916e-05
1.37384032340143e-05
1.24519639642426e-05
1.12382892205677e-05
1.0235412036938e-05
9.66750108252827e-06
9.47964936812711e-06
9.80850697690447e-06
1.09706759800309e-05
1.30971867733164e-05
1.55211311561948e-05
1.41554931314063e-05
1.18014961448918e-05
1.02505866829273e-05
1.19164342547627e-05
9.64160262042726e-05
9.36068269777037e-05
6.92982525709386e-05
3.67205942398464e-05
1.16395834307649e-05
7.03737458308625e-06
7.4615264414616e-06
6.04522312868412e-06
5.11748079542611e-06
4.91253939257463e-06
5.08751631207688e-06
5.56028926613081e-06
6.39460352163992e-06
7.73997653698347e-06
9.84808883798825e-06
1.29726457755917e-05
1.74324553018819e-05
2.36178291866049e-05
3.20061833619853e-05
4.30091760781438e-05
5.68185934009703e-05
7.33155700016128e-05
9.2103567136739e-05
0.000112263584641789
0.00013227149332665
0.000150661104787817
0.000166642844409642
0.000183046655551843
0.000212070259606065
0.000244594142181193
0.000270014605032019
0.00029110523138165
0.000309940660954705
0.00032722560057989
0.000343207297909715
0.000357157756091694
0.000369522932313225
0.000380393029806493
0.00038986177725348
0.000398007904262574
0.000404906257263935
0.00041062982137626
0.000415251984833967
0.000418846229629761
0.000421486158464223
0.00042324464804917
0.0004241933015391
0.000424401680688514
0.000423936766825623
0.000422862442954427
0.000421239159856129
0.000419123646788058
0.000416568779703002
0.000413623498468485
0.000410332838706689
0.000406737988030516
0.000402876457129107
0.000398782097376008
0.00039448479251596
0.000390012008672145
0.000385387903994094
0.000380633463920852
0.000375767554244503
0.000370806133824925
0.000365762720297714
0.000360648673175218
0.000355473237808889
0.000350243634973975
0.000344965125590891
0.000339641035525036
0.000334272780052143
0.000328859790726201
0.000323399495416789
0.000317887080471237
0.000312315452094083
0.000306674674077373
0.000300952018744394
0.000295130698301306
0.000289190336002145
0.00028310413066873
0.000276843138969565
0.000270329082173619
0.000263745665847463
0.00025706432848519
0.000250107774591565
0.000242724879606879
0.000234782349067294
0.000226066488322483
0.000216343927485137
0.000205327778215729
0.00019202492732828
0.000174255641813898
0.000162198269970033
0.00016837244958102
0.000177021341647379
0.000183699641205136
0.000185931435910966
0.000184799910916322
0.000181583390107285
0.000177622507771713
0.000172448183419331
0.00016681913510619
0.000160870415707085
0.000154582653723404
0.000146424210741621
0.00013709157571501
0.000127168919974604
0.000117051063864371
0.000107310791982167
9.90162513768043e-05
9.38360651125355e-05
9.12662002128715e-05
9.21916419740495e-05
9.84592225368923e-05
0.000110151224639988
0.000120983474491395
0.000113290280586826
9.7327956264408e-05
8.60162303630023e-05
8.95344621929398e-05
0.000245175584898958
0.000249234000739389
0.000201906765691148
0.000122866453860103
5.70412974590027e-05
3.90323008439468e-05
4.24173513388884e-05
3.571056014978e-05
3.06723944530522e-05
2.93759470863812e-05
3.01401372814302e-05
3.2363416266342e-05
3.628711427269e-05
4.24788564695486e-05
5.18786972424046e-05
6.51973738629308e-05
8.31515044703903e-05
0.000106374323623788
0.000135563278148216
0.000170910335529666
0.000211818534265711
0.000257085932785158
0.000305237880705091
0.000353704902873682
0.000398997724233815
0.000438831722954436
0.000474902258826984
0.000517693141604282
0.000586545525888025
0.000657418952080148
0.000712143291828207
0.000757944239063345
0.000798681310906707
0.000836253054883499
0.000869980006685388
0.000899463822641857
0.000925473736997124
0.000948254380174652
0.000968037838945414
0.00098501612084074
0.000999366697571281
0.00101125769150227
0.00102085359853347
0.00102831552609213
0.00103380185346243
0.00103746711841173
0.00103946132568766
0.00103992880865563
0.00103900744294999
0.00103682788543589
0.00103351311568454
0.00102917805008734
0.00102392941985879
0.00101786573932574
0.00101107746110235
0.00100364718227289
0.000995650008997324
0.000987153586566306
0.000978217870688439
0.000968897733007704
0.000959241587278797
0.000949291578013436
0.000939085362747597
0.00092865505144311
0.000918027914402593
0.000907226882236475
0.000896270669570001
0.000885173935857988
0.000873947395064391
0.000862597845286303
0.00085112817936117
0.000839537217922385
0.000827819600666336
0.000815965296379538
0.000803959392052191
0.000791780986628071
0.000779403008742953
0.00076678980873797
0.000753897464319011
0.000740668480954305
0.000727038676683793
0.000712865433712725
0.000698313976507476
0.000683674865201302
0.000668461207892874
0.000652316342684862
0.000634929277067552
0.000615847770369391
0.000594527423433593
0.000570263441940637
0.000541267963604987
0.000502161170539112
0.000473850091161546
0.000485738511984297
0.000509100297490065
0.00052853966233857
0.000537674666481481
0.000538536311195358
0.000534219816840572
0.000527656572657368
0.000517652228926393
0.00050563702293313
0.00049204213570373
0.000476726991549786
0.000456009346830495
0.000431571222618915
0.000405257924440501
0.000378259551589996
0.000352072059158553
0.000329747303427011
0.00031604145483074
0.000309432134505858
0.000311964950345027
0.000328730048284221
0.000360110664941414
0.000388565177795623
0.000361066468396059
0.000299589893143241
0.000242347478345613
0.000231548608864596
0.000451337256900999
0.000462183385834171
0.000386087070531089
0.000237451786919384
0.000133860202933493
0.000113480548179454
0.000130902537382518
0.000116937746435901
0.00010316491586474
9.8924516101439e-05
0.000100310831464287
0.00010522567132584
0.000114128752294976
0.000128182586669769
0.000149420753906233
0.000178965590719034
0.000217556740676791
0.000265390032031719
0.000322857968356888
0.000389294417663742
0.000462731373237482
0.000540690574673059
0.00062087452413957
0.000699179757554722
0.000770362398372988
0.000832379552120588
0.000891033276595916
0.000964620120223524
0.00108081434477678
0.00119880798361609
0.00128978834663696
0.00136603027479679
0.00143354955461446
0.0014945436362683
0.00154859375156851
0.00159591708334113
0.00163756418151024
0.00167396966531683
0.00170552839570481
0.00173256708809864
0.00175538550653295
0.00177426508656597
0.00178947848103206
0.00180129051973198
0.001809959539116
0.00181573605019472
0.0018188618733512
0.00181956863297163
0.00181807670022306
0.00181459419274949
0.00180931639171997
0.00180242528106585
0.00179408945395986
0.00178446417272268
0.00177369168187282
0.00176190163011757
0.00174921158732737
0.00173572708913505
0.0017215420257757
0.00170674163943229
0.00169140114053892
0.0016755859767566
0.00165935413483509
0.00164275510441246
0.00162583076745444
0.00160861610453087
0.00159113944230879
0.00157342269724926
0.00155548153595018
0.00153732541153325
0.00151895754536396
0.00150037465913044
0.00148156673102254
0.0014625162421599
0.00144319768803564
0.00142357593362004
0.00140360556329378
0.00138322742334494
0.0013623682291957
0.00134093311916313
0.00131881332258565
0.00129580356869615
0.00127196308447844
0.00124764345130902
0.00122236092346572
0.00119548474350479
0.00116645249469508
0.00113449414354191
0.00109866308063803
0.00105762673377845
0.00100881638283376
0.000942852310387054
0.000894244973495807
0.000913178773388042
0.000955878416433558
0.000994949977771592
0.00101802342362251
0.0010269229822297
0.00102670730747763
0.00102206093010454
0.00101101657735724
0.000995301194081633
0.000975709461067311
0.000951869831141239
0.000917691142882797
0.000875785170414378
0.000829913266121426
0.000782614398735245
0.000736687257852523
0.000697965372679309
0.000675569454087985
0.00066706867376028
0.000675454192514676
0.000709618386455835
0.000770585592971966
0.00082660299016837
0.000773416280112527
0.000641775349768826
0.000497299337430033
0.000443923980596067
0.00072436397504905
0.000732121147575347
0.000624033347417762
0.000377774096190299
0.000226681014568016
0.000212054209832713
0.000268075903097922
0.000258195975955716
0.000234920551847489
0.000226370226164391
0.000227633189301394
0.000234452801079774
0.000247637688717486
0.00026934165315758
0.000303253398925437
0.000350886185915455
0.000412476600581273
0.000487209705646218
0.000574876578912414
0.000673701821713822
0.000780239877789981
0.000890914076638661
0.00100285426956768
0.00111056927661902
0.00120753658511473
0.00129289727698768
0.00137721258054509
0.00148675598144041
0.00165578908298079
0.0018258978163791
0.00195757723870231
0.00206813485875002
0.00216556301339905
0.00225231956743413
0.00232881048236315
0.00239588749563678
0.0024548636630973
0.00250638483368747
0.00255102207272981
0.00258925012125201
0.00262150366604576
0.0026481895611418
0.00266970019174499
0.00268641525146057
0.00269870369031155
0.0027069221845543
0.0027114140477416
0.0027125073498041
0.00271051355554193
0.00270572627459562
0.00269842053950745
0.00268885227374944
0.00267725822523713
0.00266385613514872
0.00264884521598419
0.00263240691395078
0.00261470512088373
0.00259588706927078
0.00257608386925098
0.002555413825277
0.0025339812820155
0.00251187703405445
0.00248918097645274
0.00246596128265931
0.00244227544871115
0.00241817119159689
0.00239368684799905
0.0023688517108173
0.00234368624405248
0.00231820212799096
0.00229240220126246
0.00226628008885809
0.00223981979010271
0.00221299465839761
0.00218576655869256
0.00215808370057424
0.00212987934775968
0.00210106740710607
0.00207154093693011
0.00204116289620356
0.00200977280877003
0.00197710239811628
0.00194307847323601
0.00190794931491549
0.00187129565684396
0.00183225853125711
0.00178998833788931
0.00174335112544692
0.00169092941563218
0.00163067331153259
0.00155913927026642
0.00146271843459396
0.00138966133994251
0.0014129281635524
0.00147636259248313
0.0015397419525297
0.00158308993959071
0.00160635668247789
0.00161609311670146
0.00161866135429373
0.00161144129436867
0.00159604979869404
0.00157356287573632
0.0015432517360651
0.00149666762010464
0.00143713939517022
0.00137075480132343
0.00130193681918653
0.00123517652701721
0.00117962806883048
0.00114947070600993
0.00114187468015381
0.00116037867820484
0.00121713537275313
0.00131361740412263
0.00140272617616924
0.00132440634550249
0.00111266645838486
0.00086142579979349
0.000741021984930652
0.00106836816142414
0.00106103837832422
0.000919583539037294
0.000552753719325092
0.000332295049303322
0.000312243128941508
0.000423056780342208
0.000445366880453958
0.000418798018827744
0.00040644862553575
0.000407025402047112
0.000414341705864805
0.00042987886201098
0.000457438778575222
0.000502999104787812
0.000568521178206623
0.000653323111519789
0.000755260732749575
0.000873330730803099
0.00100449687959736
0.00114382636902269
0.0012868233157463
0.00143015025266704
0.00156712375041645
0.00169055510156014
0.001801500127845
0.00191550404527019
0.00206643241226997
0.00229207727221404
0.00251683040073629
0.00269208474708449
0.00283967293977702
0.00296925037769767
0.00308373417591816
0.00318450983463378
0.00327301783009529
0.00335083046584147
0.00341881910267978
0.00347774018012777
0.00352822626080349
0.00357085615626718
0.00360617099079817
0.00363469126248733
0.00365691955634388
0.00367334307364124
0.00368443195136794
0.0036906379300072
0.00369239211084011
0.00369010327783985
0.00368415639781561
0.00367491175242179
0.00366270433881627
0.00364784382553961
0.00363061483772255
0.00361127766438896
0.00359006913134687
0.00356720274220292
0.00354287055081291
0.00351724363032604
0.00349047568827685
0.00346270227964931
0.00343404140610202
0.00340459639741372
0.00337445541404983
0.00334369263785099
0.0033123693481488
0.00328053448568944
0.00324822508910989
0.00321546656634272
0.00318227274941074
0.00314864578899437
0.00311457567599251
0.00308003963891772
0.00304500085503187
0.00300940720343457
0.00297318858844703
0.00293625489617572
0.00289849069699796
0.00285975239510078
0.0028198574305065
0.00277858859903706
0.00273561288287266
0.0026907212088417
0.00264398577889417
0.0025950183328388
0.00254277421315676
0.00248611571339941
0.00242352813483235
0.00235308690015393
0.00227200186965215
0.0021759051617338
0.00204710781784752
0.00194610299284095
0.00196879826920696
0.00205161862710037
0.00214160357825476
0.00221001576907428
0.00225326230871598
0.00227850371186301
0.00229346103679519
0.00229497297770236
0.00228420901685072
0.00226234078036836
0.00222812597066285
0.00217091017591891
0.00209452124403712
0.0020075728893543
0.00191680644505493
0.00182879166294255
0.00175640574480111
0.00171923320256649
0.00171461278330351
0.00174632588154892
0.0018289391876724
0.00196386358166377
0.00208820091671933
0.00198743525691628
0.0016915472951987
0.00132622383000711
0.00112413877837911
0.00148220999196015
0.00144934404010616
0.00127240929274468
0.000773760413162138
0.000445548110724922
0.000407684875502055
0.0005671335648791
0.000656729893227692
0.000641252404931791
0.000627972450070985
0.000628217896091486
0.000635162788445245
0.00065137660408066
0.000683009477640454
0.000738910381658145
0.000821627496721759
0.000929306113521305
0.00105828707350735
0.0012065911536406
0.00136981215664319
0.00154157686028458
0.00171663081604564
0.00189124572255619
0.0020578235693223
0.00220910794255335
0.00234853782524965
0.00249650294263972
0.00269348247782338
0.00297800482137482
0.00325858470487192
0.00347934243295731
0.00366592564468064
0.00382932437141899
0.00397316472308481
0.00409978040590302
0.00421114812600543
0.00430910197907169
0.00439474808068255
0.00446903456839921
0.0045327589519454
0.00458665066949008
0.00463139128200929
0.00466763506661588
0.00469601281261916
0.00471713492753552
0.00473158968645116
0.00473994167375741
0.00474272921879605
0.00474046241366705
0.00473362137776274
0.00472265524783267
0.00470798151903234
0.00468998601893817
0.00466902330960658
0.00464541776226943
0.00461946389680624
0.00459142753384666
0.00456154783909196
0.00453003798249773
0.00449708895617599
0.00446286923275937
0.00442752559067115
0.00439118614566649
0.00435396023516117
0.00431593975468115
0.00427720039743877
0.00423780238677874
0.00419779101595133
0.00415719697584325
0.00411603641849873
0.00407431079809127
0.00403200628348849
0.00398909295058684
0.00394552322310902
0.00390123019059855
0.00385612443000326
0.0038100911429302
0.00376298401425767
0.0037146208511031
0.00366477141182307
0.00361315850589617
0.00355938232227929
0.00350310196412403
0.00344419674590177
0.0033822271384294
0.00331601362337249
0.00324413705271293
0.00316470185787445
0.0030752638155684
0.00297229966972905
0.00285049711613069
0.00268845242635698
0.00255696701933243
0.00257383931686382
0.00267294954450699
0.00278984522776429
0.00288648539269547
0.00295432022316926
0.00300004144664093
0.00303220687886832
0.00304713882916334
0.00304528284423021
0.00302766237105437
0.00299234095839206
0.00292663750702014
0.00283469536054251
0.00272770552900275
0.00261504253534299
0.00250570675343817
0.00241661101479727
0.00237288121615022
0.00237252342193881
0.00241935960746587
0.00252953143638706
0.0027037873465485
0.00286341383456832
0.00274319657908951
0.00236274801229668
0.00188004740348697
0.0015877216925341
0.00196280806712657
0.00189623386556117
0.00167979828354912
0.00105181077358795
0.000572525207787701
0.000498314983463142
0.000685024021669173
0.000870177461158306
0.000888977107656442
0.000880704931797533
0.000882248557992732
0.000888936731440681
0.000904924486883333
0.000939338506610856
0.00100441313611734
0.0011035253735236
0.00123355936012224
0.00138924236839162
0.00156746328279762
0.00176238846919756
0.00196628980949352
0.00217329274693773
0.00237936541327376
0.00257631234361836
0.00275730598555681
0.00292838170360928
0.00311434667606071
0.00336101467129271
0.0037054855402233
0.00404220221963936
0.00430968649285752
0.00453660834089751
0.00473508999274376
0.00490957914557022
0.0050632895092852
0.0051986875169429
0.00531787238210703
0.00542219020760988
0.00551278478965999
0.00559062333590413
0.00565659000360639
0.00571151051172637
0.00575617609072741
0.00579134853173761
0.00581776390105693
0.00583613083086988
0.00584712878841805
0.00585140525608467
0.00584957348212181
0.0058422105387855
0.00582985618648632
0.00581301216820762
0.00579214219888526
0.00576767256552884
0.00573999326895103
0.00570945807369794
0.00567638683461401
0.00564106734485148
0.00560375634971533
0.00556468348737327
0.00552405142736377
0.00548203694556518
0.00543879405000446
0.00539445426653183
0.0053491281214572
0.005302906529874
0.00525586169155226
0.00520804773302136
0.00515950108893257
0.00511024057146795
0.00506026715237493
0.00500956326355276
0.00495809177548139
0.00490579416620643
0.00485258838817943
0.00479836519348107
0.00474298441952614
0.00468626803073296
0.00462799417432324
0.0045678837464434
0.00450559778078288
0.00444066795996045
0.00437262793758191
0.00430116296375342
0.0042257242067926
0.00414501414864404
0.00405734875364693
0.00396046241793871
0.00385139535111372
0.00372591380524325
0.00357775794402162
0.00338228529337976
0.00321870549270982
0.00322494036968387
0.00333632746223498
0.00347891237795439
0.00360544629282668
0.0037013896912292
0.00377185940037052
0.00382558743057223
0.00385829623557281
0.0038694661332664
0.00385969888615523
0.00382616994061498
0.00375435080784418
0.00364855570855668
0.00352250362135967
0.00338840429899068
0.00325798485327114
0.00315242527930228
0.00310237268874658
0.00310689028979584
0.00316970205028897
0.00330780134707626
0.00352076361106174
0.00371450972150267
0.00357780805132798
0.0031148610452401
0.00251388362782701
0.00212567177048036
0.00250703392654009
0.00240047373753531
0.00213872709800865
0.00139475801698591
0.000720238503421668
0.000589708555424595
0.000775607722053438
0.00106557252559337
0.0011491748144343
0.00115604711028164
0.00116211804404699
0.00116980441175822
0.0011855626862318
0.00122203166228128
0.0012953004430828
0.00140994222921996
0.00156166150513048
0.00174355269988225
0.00195125500002793
0.00217749402768955
0.00241328964000467
0.00265226344543517
0.00289018033306242
0.00311855916463944
0.0033313643729325
0.00353722495025331
0.00376474821538065
0.00406372642010011
0.00446826391430601
0.00486076296747278
0.00517559682660741
0.00544367878722089
0.00567811328269435
0.00588420193541731
0.00606595611933822
0.0062262926272261
0.00636757753208497
0.00649139880372757
0.00659909769055694
0.00669181361171812
0.00677058727930819
0.00683638998252058
0.00689015072558046
0.00693276271651048
0.00696508775827784
0.00698795472047942
0.00700215772320818
0.00700845315197445
0.00700755720132681
0.00700014377034375
0.00698684322863748
0.00696824168282153
0.00694488097932319
0.00691725967879335
0.00688583346923205
0.00685101619270167
0.00681318241576733
0.0067726692904963
0.00672977793515381
0.00668477743940447
0.00663790548501148
0.00658936968096095
0.00653935074449987
0.00648800318090329
0.00643545691010411
0.00638181878799934
0.00632717365393711
0.00627158506959342
0.00621509574853181
0.00615772762657575
0.00609948157965403
0.00604033660888978
0.00598024860029073
0.00591914822099653
0.00585693832985815
0.00579348981119951
0.00572863700204982
0.00566216993539581
0.00559382679799661
0.0055232792998978
0.00545012615285231
0.0053738295240463
0.00529380456644126
0.00520954838258897
0.00512036695784055
0.00502484315191416
0.00492104631848861
0.00480635841388456
0.00467732009209854
0.00452901917105872
0.00435425785104521
0.00412567524386552
0.00392917974161027
0.00392067800980281
0.00403998141459434
0.00420593765278715
0.00436272746069424
0.00448921321801497
0.00458792296330601
0.00466702752888004
0.00472146416283801
0.00474952097230392
0.00475109157674001
0.00472226666881121
0.00464683969849473
0.00452918439403944
0.004385429254517
0.00423072079053359
0.00407973923177718
0.0039580778415208
0.00390174721815458
0.0039111382158611
0.00398978221396779
0.00415498370043239
0.00440486775434538
0.00463093961467782
0.00448052429418219
0.00393902520392186
0.00322100458277129
0.00273308518431261
0.00311227395082691
0.00296080882842151
0.00264694401488259
0.00180696651424007
0.000896744752206402
0.000686134089337802
0.000848010835906834
0.0012275695756726
0.00140862450609787
0.0014461392539885
0.00146201220277963
0.001473216184973
0.00148970631897117
0.00152810271542908
0.00160879130169888
0.00173804046688331
0.00191062810183103
0.00211808106537208
0.00235471638899309
0.00261183942369987
0.00287932479761264
0.00315038620902688
0.00342068875869151
0.00368174082092901
0.00392852698051673
0.00417209972494772
0.00444414482689101
0.00479712357132971
0.005261062972554
0.00570842757013515
0.00607068594078213
0.00638027300914243
0.00665114413130463
0.00688943803215682
0.00709987790829533
0.00728579705771184
0.00744982748606451
0.00759379795997246
0.0077192468628093
0.00782748615484772
0.00791971275789398
0.0079970427132592
0.00806054135663092
0.00811123144266215
0.00815009831448
0.00817808872018195
0.00819610902870941
0.00820502219171318
0.00820564516067197
0.00819874667680845
0.0081850459776776
0.00816521205988502
0.00813986378943143
0.00810957095002666
0.00807485407751057
0.00803618681519207
0.00799399818087062
0.00794867462005553
0.00790056172613309
0.00784996826626472
0.00779716726139417
0.00774239757916788
0.00768586714187102
0.00762775397391301
0.00756820796548953
0.00750735250942383
0.00744528568289173
0.00738208107310913
0.00731778824678745
0.00725243281442817
0.00718601607836763
0.00711851409832149
0.00704987623037177
0.00698002275041592
0.00690884181167345
0.00683618479291996
0.00676186087927288
0.00668562852273946
0.00660718632951292
0.00652615727273314
0.00644207827228217
0.0063543418678151
0.00626225171023432
0.00616512657171606
0.00606210704334382
0.00595164805351997
0.0058315889357303
0.00569898060186911
0.00554988874243034
0.00537876124475308
0.00517748365396727
0.00491649947651343
0.00468693410863193
0.00466038365245755
0.00478326416933961
0.00496954323103285
0.00515586231967736
0.00531428865484856
0.00544391851348387
0.0055516160171526
0.00563126627142962
0.00567973953068862
0.00569593228407476
0.00567465987519019
0.00559819355032917
0.005470880902664
0.00531109287769385
0.00513692572357044
0.004966159883326
0.00482885329216394
0.00476608719426987
0.00477973579142003
0.00487309728336814
0.00506349746322236
0.00534767827680004
0.0056041508968523
0.00544280347987824
0.00482801203099832
0.003996071804602
0.00340617760390158
0.00377642905465307
0.00357608545849681
0.00320326814801377
0.00228882604033767
0.00111177341757918
0.000791964717682182
0.000912783095040618
0.00134823711041063
0.00165324312231764
0.00174294297912237
0.00177654359846598
0.00179521629361203
0.00181445079355819
0.00185531587709079
0.00194291298520418
0.00208582698093931
0.00227833405518597
0.00251055536732119
0.00277546577022684
0.00306299755373163
0.0033619839909607
0.00366530775293175
0.00396862862207584
0.00426366501842315
0.00454652778801131
0.0048304021827922
0.00514929073387834
0.00555711985342539
0.00607913205065271
0.0065799383852964
0.00698917756272677
0.00734016131031996
0.007647568107947
0.00791832627253742
0.00815778644175658
0.00836966804859627
0.00855686496438448
0.00872144295114179
0.00886513507386199
0.00898942397826392
0.00909566029694516
0.00918510181865784
0.00925894657004557
0.00931834277538586
0.00936439493504848
0.009398163169947
0.0094206616119961
0.009432855443292
0.00943565828491318
0.00942992994972002
0.00941647513799978
0.00939604272428074
0.00936932619321478
0.0093369638406575
0.00929953946982742
0.00925758506349039
0.00921158292099678
0.0091619679157865
0.00910912951672466
0.00905341580015558
0.00899513494780822
0.00893455708323161
0.00887191748436914
0.00880741795899479
0.00874122873263309
0.00867349018128272
0.00860431412554225
0.00853378472890925
0.0084619589959578
0.00838886682144854
0.00831451056232499
0.00823886397921391
0.00816187055480838
0.00808344084561658
0.00800344899595631
0.00792172760884402
0.00783806150669345
0.00775217842617974
0.00766373839351969
0.00757231680801089
0.0074773902794077
0.00737828259495623
0.00727419288108893
0.00716427350524688
0.00704749077110429
0.00692216269428989
0.00678591304756954
0.0066354850262107
0.00646650002545143
0.00627280921253393
0.00604541457301652
0.00575306362418933
0.00549083550259376
0.00544369831547664
0.00556607026154606
0.00576919134635568
0.00598343894841339
0.00617425095471675
0.00633666400251183
0.00647553306160397
0.00658336929044772
0.00665539522757692
0.00668922601171426
0.00667822401472145
0.00660328033497685
0.0064686494030603
0.00629474222167965
0.00610253925625824
0.00591298145487202
0.0057605363567691
0.00569092225172294
0.00570755586656591
0.00581355473947318
0.00602630466545091
0.00634165558276598
0.00662692421272748
0.00645765654433307
0.00577572323068053
0.00483457392818268
0.00414190310487029
0.00449776211632467
0.00424524503822742
0.00380745445301767
0.00283703698951549