/*--------------------------------*- C++ -*----------------------------------*\
  =========                 |
  \\      /  F ield         | OpenFOAM: The Open Source CFD Toolbox
   \\    /   O peration     | Website:  https://openfoam.org
    \\  /    A nd           | Version:  7
     \\/     M anipulation  |
\*---------------------------------------------------------------------------*/
FoamFile
{
    version     2.0;
    format      ascii;
    class       volVectorField;
    location    "8000";
    object      wallShearStress;
}
// * * * * * * * * * * * * * * * * * * * * * * * * * * * * * * * * * * * * * //

dimensions      [0 2 -2 0 0 0 0];

internalField   uniform (0 0 0);

boundaryField
{
    bottomWall
    {
        type            calculated;
        value           nonuniform List<vector> 
120
(
(-0.00495960421451178 4.16665586755737e-05 5.59041682943594e-23)
(-0.00601441238459002 0.000166294897367191 1.1514409725825e-19)
(-0.00422435693074226 0.000516092693822162 7.52316384526264e-37)
(-0.000236717455569732 0.000201093844915101 1.00115541802637e-18)
(0.00223146035840331 -0.000848401339098695 1.22925158477188e-22)
(0.0020969675595783 -0.0011364894767113 4.43140157116662e-22)
(0.00143086411874049 -0.000929887285099243 2.21210843627145e-18)
(0.00109594249662463 -0.000791859565267806 -2.24152921943749e-18)
(0.00086650730441943 -0.00067117581939468 6.34998555869856e-16)
(0.000757425492447356 -0.00060015048314551 6.36733715428289e-16)
(0.000666072534594312 -0.000527007494735513 -5.57276636482704e-22)
(0.000617742878017839 -0.000483051398103122 1.10982818027523e-21)
(0.000587245584566357 -0.000455646551077637 -1.11167374234865e-21)
(0.000579738825686286 -0.00044798636159575 2.27052249200077e-18)
(0.000599128259232314 -0.000461554312444221 2.26701412437654e-18)
(0.000646534620793676 -0.000495234824843827 2.20303139476015e-21)
(0.000709123877706326 -0.000537062845762485 2.23737926358835e-18)
(0.00077391868320007 -0.000571387997181695 -4.45086540192101e-18)
(0.000838708926173983 -0.000593038058900336 2.2043838372866e-18)
(0.000895794180501738 -0.00059477943471522 2.19788552219841e-18)
(0.000934955824637867 -0.000570258263760194 -2.17782493149388e-18)
(0.000959800115792737 -0.000522382072660448 2.15565564361651e-18)
(0.000983378220409924 -0.00046285362909153 8.48463840754142e-24)
(0.00100300594593527 -0.000394219316123257 -2.10486865951759e-18)
(0.00101578517356288 -0.000316636689039351 4.21297175334708e-35)
(0.00102259016267885 -0.000231321154910226 0)
(0.00099894885412396 -0.000137839066364341 1.49341791485206e-16)
(0.00109038483241725 -5.76528905332308e-05 1.49015298191617e-16)
(0.00139109131139103 -2.41884189614493e-05 -4.62901569911587e-25)
(0.00165049529754482 -2.18773624535446e-05 -1.34629873748369e-32)
(0.00179875188338527 -1.9003463681746e-05 -0)
(0.00189623737411812 -1.72835609279951e-05 1.55430750620236e-16)
(0.00195441897836167 -1.60123277016085e-05 1.56942749365408e-16)
(0.00198492590069296 -1.48502793705337e-05 0)
(0.00199231299985656 -1.37148879910011e-05 -1.80472600461224e-53)
(0.00198070993291498 -1.25922178749712e-05 -1.17157381785842e-51)
(0.00195309953150572 -1.14983376936552e-05 -0)
(0.00191180213371279 -1.04136585901756e-05 1.83131945215925e-21)
(0.00185872813931779 -9.34859024922158e-06 -1.52435451621166e-16)
(0.00179561581622173 -8.31369745594881e-06 -1.55437270949661e-16)
(0.00172403375531851 -7.31926432261089e-06 1.86956800216811e-21)
(0.00164543056896478 -6.3741552326125e-06 1.90201916275169e-21)
(0.00156113739080266 -5.48495784566076e-06 -1.91307589018797e-21)
(0.00147237325390759 -4.65624409062661e-06 1.94843222924204e-21)
(0.00138024634083711 -3.89047180351816e-06 -1.96260067378052e-21)
(0.00128575445542815 -3.18841722247031e-06 -0)
(0.00118978795234985 -2.54935843476349e-06 1.7447442392459e-16)
(0.00109313278317092 -1.97145233008408e-06 1.78039625301862e-16)
(0.000996475842385404 -1.45196914760312e-06 2.07865689036065e-21)
(0.000900410814306616 -9.875780480111e-07 -1.05148272400123e-21)
(0.000805445177690054 -5.74530178415537e-07 1.07105909612284e-21)
(0.000712007493375826 -2.08861917021006e-07 -2.16715345419816e-21)
(0.000620455098712155 1.13484743973012e-07 1.82683507466117e-16)
(0.000531081750315917 3.9653151774756e-07 1.8581309765335e-16)
(0.000444124954838921 6.44208911549674e-07 5.63170835760382e-22)
(0.000359773448453676 8.60124828271345e-07 -9.66326119228033e-42)
(0.000278173355604461 1.04822952659908e-06 -3.37057630792413e-32)
(0.000199435426286681 1.21829467059776e-06 2.93653321787632e-22)
(0.0001236390909177 1.39305668051448e-06 -4.44962396967426e-22)
(5.0838450066829e-05 1.56595518557813e-06 1.49959281067974e-22)
(-1.89307124950429e-05 1.70861467441952e-06 0)
(-8.5651116912871e-05 1.82154991611559e-06 -3.02532380155842e-22)
(-0.000149317818906313 1.91681188396227e-06 3.0114543891591e-22)
(-0.000209933352557235 1.99897879107462e-06 -3.50462020125925e-32)
(-0.000267507288394003 2.06995763447736e-06 -0)
(-0.000322052018457892 2.13157618734015e-06 6.01192124148267e-22)
(-0.00037358066209154 2.18545801896061e-06 -5.99218996251913e-22)
(-0.000422104487700634 2.23305839009959e-06 -0)
(-0.000467630834726207 2.27568233647964e-06 0)
(-0.000510160651451563 2.31449184584009e-06 0)
(-0.000549686558607649 2.35054670030013e-06 0)
(-0.000586189918443297 2.38477676214146e-06 0)
(-0.000619639097379458 2.41806696255616e-06 -2.0035204981555e-16)
(-0.000649985057364131 2.45115031207746e-06 -3.99779436284698e-16)
(-0.00067716034629958 2.48481301950098e-06 -1.99384589464575e-16)
(-0.000701070946728555 2.51957867260272e-06 4.81102738514899e-21)
(-0.000721598095524799 2.55624964585943e-06 -2.40743252354315e-21)
(-0.000738580657881604 2.59502525796305e-06 2.41685712612401e-21)
(-0.000751826994895363 2.63697268761821e-06 -2.41843542547466e-21)
(-0.000761071214640277 2.68181649915245e-06 -2.03202813972041e-16)
(-0.000766027736849249 2.73213194894944e-06 -2.01888572745202e-16)
(-0.000766266205478788 2.78706118553399e-06 2.44289526786877e-21)
(-0.000761421824206435 2.85118938290003e-06 -2.45750518395237e-21)
(-0.000750807552878167 2.91533229571541e-06 4.93361386074865e-21)
(-0.000733782839808629 2.98965131167062e-06 -2.47786528957025e-21)
(-0.00070897663446464 3.04977180937709e-06 4.99741682648079e-21)
(-0.000675488290729309 3.1303083325689e-06 -1.0059201856943e-20)
(-0.000630628383952092 3.16619515002021e-06 5.06817739738725e-21)
(-0.00057344018464653 3.25433178685126e-06 5.13323744681111e-21)
(-0.000497869090795889 3.21007571077136e-06 -1.03831125194331e-20)
(-0.000404555419717263 3.2064110348235e-06 3.1802590017767e-26)
(-0.000273200856753827 2.42770567723047e-06 6.56076203775376e-25)
(-0.000105587898829667 -1.68743368188026e-06 -7.3468396926393e-40)
(-8.32562633375048e-05 -9.53258128190772e-06 -5.54281150432688e-21)
(-0.000145548682150441 -3.88393554928724e-05 1.42345501510119e-18)
(-0.000207175054029653 -7.59173704698329e-05 1.52246764479572e-23)
(-0.000298466477620461 -0.000132901828292103 2.78583209923457e-18)
(-0.000410024970752086 -0.000211285600893587 2.79012384400535e-18)
(-0.000551878944539166 -0.000318756100032161 -2.7719302795834e-18)
(-0.000741829980206663 -0.000465385596529647 2.75650815203941e-18)
(-0.000971823271811809 -0.000646386512451683 -2.74108325393487e-18)
(-0.00123546486456259 -0.000854780656802142 -2.72496852866917e-18)
(-0.00152982485198859 -0.00108473552933304 -1.86574463362513e-34)
(-0.00185471547718778 -0.00133012391447053 0)
(-0.00216949479217566 -0.0015639785441485 2.67850462132734e-18)
(-0.00246574505250915 -0.00179141074971822 2.66814996139859e-18)
(-0.00278329417532119 -0.00204311384369859 2.65783154350081e-18)
(-0.00314594879373926 -0.00233897003615702 2.64478546413176e-18)
(-0.00358801572303252 -0.00270530341619949 2.62645646150313e-18)
(-0.00418098223152707 -0.00319292688591269 -2.59295983138904e-18)
(-0.00509787818498249 -0.00388931871625642 -2.53278284180785e-18)
(-0.00637060374519824 -0.00472492155800662 2.44056754558471e-18)
(-0.00794193882499788 -0.00556801852286743 -2.30701562458947e-18)
(-0.010025650368178 -0.00636650128842537 -2.12406896916397e-18)
(-0.0125231969460705 -0.00676732226039448 1.88379164632859e-18)
(-0.0148873803265375 -0.00608622300300325 -1.95602259976829e-35)
(-0.0137084354340423 -0.00347803310804512 -7.03736281836437e-19)
(-0.00945050545524736 -0.00113209715794542 -1.88079096131566e-37)
(-0.00523682773507035 -0.000134373242320596 9.98738696852111e-20)
(-0.00396225503406331 3.62059705070677e-05 0)
)
;
    }
    topWall
    {
        type            calculated;
        value           nonuniform List<vector> 
120
(
(-0.00526524503321042 -1.41663568997783e-06 0)
(-0.0052585664117623 -1.33883319712377e-06 0)
(-0.00524792857940702 -1.27089334055379e-06 0)
(-0.00523364388964927 -1.21181123840759e-06 0)
(-0.00521603042521318 -1.16140561859926e-06 0)
(-0.00519541573837915 -1.11946920855006e-06 0)
(-0.0051721294835247 -1.08545217198244e-06 0)
(-0.00514649219482781 -1.05857449236107e-06 0)
(-0.00511880762189842 -1.03794519465272e-06 0)
(-0.00508935770167876 -1.02261623568305e-06 0)
(-0.00505839900890541 -1.01162671427463e-06 0)
(-0.00502616065764662 -1.00404270429116e-06 0)
(-0.00499284356548185 -9.98991056809582e-07 0)
(-0.00495862100284207 -9.95686419611208e-07 0)
(-0.00492364015052085 -9.93446564152156e-07 0)
(-0.0048880242910911 -9.91698496058466e-07 0)
(-0.00485187554444072 -9.89984267524791e-07 0)
(-0.00481527810342552 -9.87963722002014e-07 0)
(-0.00477830164114106 -9.8540513091183e-07 0)
(-0.00474100454755611 -9.82171392877685e-07 0)
(-0.00470343688220401 -9.78205932795737e-07 0)
(-0.00466564302268463 -9.73519462156712e-07 0)
(-0.00462766398898664 -9.68177139984012e-07 0)
(-0.00458953942877833 -9.62286397460023e-07 0)
(-0.00455130923666454 -9.55985021529587e-07 0)
(-0.00451301482064266 -9.49430958707108e-07 0)
(-0.00447469999916235 -9.42791420774609e-07 0)
(-0.00443641158883923 -9.36236766393103e-07 0)
(-0.00439819968292644 -9.29930985917813e-07 0)
(-0.0043601176709737 -9.24028635065519e-07 0)
(-0.00432222203812912 -9.18668254680263e-07 0)
(-0.00428457198312342 -9.13971490409823e-07 0)
(-0.0042472288949468 -9.10039231541336e-07 0)
(-0.00421025574063423 -9.06953055724594e-07 0)
(-0.00417371638881481 -9.04773317723126e-07 0)
(-0.00413767493062154 -9.03542450658939e-07 0)
(-0.0041021949820479 -9.03283935180192e-07 0)
(-0.00406733907533059 -9.04007317287615e-07 0)
(-0.00403316800728859 -9.05706414883032e-07 0)
(-0.00399974044093306 -9.08367251674165e-07 0)
(-0.00396711223068622 -9.11961869536621e-07 0)
(-0.00393533653508845 -9.16466488064448e-07 0)
(-0.00390446273793338 -9.2182321262922e-07 0)
(-0.00387453701345662 -9.2804597747264e-07 0)
(-0.00384560328714588 -9.35041343306086e-07 0)
(-0.00381769873900723 -9.42757541754452e-07 0)
(-0.0037908591217385 -9.51231380738541e-07 0)
(-0.00376511704335011 -9.60379240282331e-07 0)
(-0.00374050100749452 -9.70189585293502e-07 0)
(-0.00371703687340609 -9.80643657022008e-07 0)
(-0.00369474762769801 -9.91722276702172e-07 0)
(-0.00367365367842914 -1.00341685254264e-06 0)
(-0.00365377325923999 -1.01572587941441e-06 0)
(-0.00363512275785273 -1.02865490578345e-06 0)
(-0.00361771706854731 -1.04221670301037e-06 0)
(-0.00360156994937474 -1.05643115536843e-06 0)
(-0.00358669438107688 -1.07132514001738e-06 0)
(-0.00357310291772147 -1.08693234037749e-06 0)
(-0.00356080804300213 -1.10329341814018e-06 0)
(-0.00354982251611748 -1.12045521591073e-06 0)
(-0.00354015966589991 -1.13846952927451e-06 0)
(-0.00353183368615317 -1.15739406677163e-06 0)
(-0.0035248599711246 -1.17729324981854e-06 0)
(-0.00351925540933324 -1.19823666002006e-06 0)
(-0.00351503865495849 -1.22029733674936e-06 0)
(-0.00351223020660643 -1.24355723258942e-06 0)
(-0.0035108532504496 -1.26814070992878e-06 0)
(-0.00351093421296533 -1.29403770245325e-06 0)
(-0.00351249484001503 -1.32175272021117e-06 0)
(-0.0035155937818368 -1.35158796599961e-06 0)
(-0.00352027072542882 -1.38302325214003e-06 0)
(-0.00352655698558119 -1.41599600658839e-06 0)
(-0.00353448349081758 -1.45058074080419e-06 0)
(-0.00354408476581548 -1.48690361661088e-06 0)
(-0.00355539888863301 -1.52504631119348e-06 0)
(-0.00356846620517872 -1.565068101107e-06 0)
(-0.00358332888794299 -1.60701942241678e-06 0)
(-0.00360003059825985 -1.650938166727e-06 0)
(-0.00361861596933606 -1.69684523409001e-06 0)
(-0.00363912994023536 -1.74474053990742e-06 0)
(-0.00366161696801757 -1.79459989086565e-06 0)
(-0.00368612013359803 -1.84637185328303e-06 0)
(-0.00371268014610934 -1.89997471701696e-06 0)
(-0.00374133423560708 -1.95529286291549e-06 0)
(-0.00377211492313884 -2.01217315424107e-06 0)
(-0.00380504866652198 -2.07042112388005e-06 0)
(-0.00384015437415886 -2.12979703015141e-06 0)
(-0.00387744178769216 -2.19001202940254e-06 0)
(-0.00391690973380508 -2.25072443057756e-06 0)
(-0.00395854425680286 -2.31153641611905e-06 0)
(-0.00400231663805863 -2.37199103175138e-06 0)
(-0.00404818132929285 -2.43157029776985e-06 0)
(-0.00409607381862693 -2.48969378652857e-06 0)
(-0.00414590846903128 -2.54571911292373e-06 0)
(-0.00419757637688524 -2.59894341182211e-06 0)
(-0.00425094329031769 -2.648607061552e-06 0)
(-0.00430584768249708 -2.69389980816278e-06 0)
(-0.0043620990060989 -2.73396869928642e-06 0)
(-0.00441947630253786 -2.76793099421693e-06 0)
(-0.0044777271330602 -2.79488777205748e-06 0)
(-0.00453656722000496 -2.81394775050026e-06 0)
(-0.00459568049617644 -2.82424449734759e-06 0)
(-0.00465472044358682 -2.82498006063024e-06 0)
(-0.00471331185481216 -2.81543608927305e-06 0)
(-0.00477105445588766 -2.79505274156255e-06 0)
(-0.0048275274628675 -2.76337411121458e-06 0)
(-0.00488229357886763 -2.72021353686787e-06 0)
(-0.00493490950251705 -2.66566691710408e-06 0)
(-0.00498493255552476 -2.59999233704508e-06 0)
(-0.0050319295177227 -2.52382896330356e-06 0)
(-0.00507548833821979 -2.43810895603236e-06 0)
(-0.00511522836044843 -2.34405680249224e-06 0)
(-0.00515081080241521 -2.2431751147129e-06 0)
(-0.00518194874821388 -2.13720171719803e-06 0)
(-0.00520841566282544 -2.02804657945301e-06 0)
(-0.00523005225109102 -1.91772440404708e-06 0)
(-0.00524677071002744 -1.8082624690372e-06 0)
(-0.00525855674755059 -1.70162676161706e-06 0)
(-0.00526546786654415 -1.59968706390494e-06 0)
(-0.00526763500481062 -1.50419853495822e-06 0)
)
;
    }
    inlet_half0
    {
        type            cyclic;
    }
    inlet_half1
    {
        type            cyclic;
    }
    outlet_half0
    {
        type            cyclic;
    }
    outlet_half1
    {
        type            cyclic;
    }
    sideRight_half0
    {
        type            empty;
    }
    sideRight_half1
    {
        type            empty;
    }
    sideLeft_half0
    {
        type            empty;
    }
    sideLeft_half1
    {
        type            empty;
    }
}


// ************************************************************************* //
