/*--------------------------------*- C++ -*----------------------------------*\
  =========                 |
  \\      /  F ield         | OpenFOAM: The Open Source CFD Toolbox
   \\    /   O peration     | Website:  https://openfoam.org
    \\  /    A nd           | Version:  7
     \\/     M anipulation  |
\*---------------------------------------------------------------------------*/
FoamFile
{
    version     2.0;
    format      ascii;
    class       volSymmTensorField;
    location    "9000";
    object      bijDelta;
}
// * * * * * * * * * * * * * * * * * * * * * * * * * * * * * * * * * * * * * //

dimensions      [0 0 0 0 0 0 0];

internalField   nonuniform List<symmTensor> 
15600
(
(9.00209874778033e-05 -6.18318669706482e-07 -8.31836518154881e-25 -4.41554315523458e-05 -1.86940816258553e-23 -4.5851799010063e-05)
(0.000113413275055445 -4.3542452550597e-06 -8.64721442861895e-22 -5.56491773495855e-05 2.25027847168706e-23 -5.7746771941701e-05)
(6.87659545548531e-05 -1.13799289883238e-05 -4.62979573039603e-23 -3.31705616962288e-05 -1.21831142946668e-22 -3.55847163760632e-05)
(4.42006974373899e-06 -1.84483270059814e-06 1.16970295581102e-18 -1.92066701982718e-06 -2.75397621117551e-19 -2.49865305302881e-06)
(5.50665747130506e-06 -4.14360661186712e-06 -1.44283794803128e-18 -1.75403805156814e-06 6.71080586565794e-19 -3.75149385902314e-06)
(5.80450747862289e-06 -6.27527338858684e-06 4.83045817957052e-21 -9.55368800480574e-07 -2.77003086079359e-21 -4.84768422742901e-06)
(2.641086950095e-06 -3.66684915983328e-06 2.2971550383351e-21 1.26295393722343e-08 -1.68994673959909e-21 -2.65292053371155e-06)
(1.61522842423084e-06 -2.6412083079084e-06 3.30762934493099e-20 2.46812175600155e-07 -3.46136042286937e-21 -1.86148209935115e-06)
(1.14275994899793e-06 -2.08900089923854e-06 -1.86427902445267e-19 3.12378511963683e-07 1.76412034136875e-19 -1.45470200671418e-06)
(1.06031467508711e-06 -1.99513971476799e-06 -2.59400600574281e-19 3.26982759504408e-07 1.95623538530815e-19 -1.38688132858234e-06)
(1.07045060451419e-06 -1.96711302080691e-06 -3.63787342818751e-20 3.01024131417302e-07 4.22520315115937e-21 -1.37106337578274e-06)
(1.19503983048012e-06 -2.11133374239844e-06 -5.53419974890448e-25 2.83102679361317e-07 4.16730472135521e-25 -1.4776991557593e-06)
(1.37304002213068e-06 -2.35211886273964e-06 2.06228802463018e-22 2.79364947185665e-07 -1.15335374300755e-23 -1.65190934695002e-06)
(1.6616843073378e-06 -2.78519514827836e-06 9.01749451267523e-21 3.00134211288327e-07 -6.90159140009226e-21 -1.96123009075611e-06)
(2.14279668093102e-06 -3.53851671717567e-06 -7.86441063517699e-21 3.54470196317661e-07 5.9472442109624e-21 -2.49651784699155e-06)
(2.91145391039929e-06 -4.75741803727826e-06 4.13413790566393e-23 4.51092466644479e-07 -8.20008638689577e-24 -3.36153781484309e-06)
(4.02481115501497e-06 -6.47228721190582e-06 -2.91020859963459e-21 5.6143728192618e-07 1.47548606545464e-21 -4.58487283752996e-06)
(5.6123063622976e-06 -8.66443782819215e-06 -6.8948649572659e-21 5.68371640240846e-07 5.18901771585608e-21 -6.17882416990421e-06)
(7.87404934294736e-06 -1.13333235420771e-05 1.35479634621671e-20 3.14372138020712e-07 -7.93098907541059e-21 -8.18596544573083e-06)
(1.09485549262755e-05 -1.42526367177215e-05 1.2308589475057e-20 -4.22794639939051e-07 -9.9094388783127e-21 -1.05226031896699e-05)
(1.48885312551297e-05 -1.6971291054754e-05 1.24348411501028e-21 -1.88942507079672e-06 -7.6711993479048e-22 -1.29952072322681e-05)
(1.98858112560165e-05 -1.91628734379345e-05 8.80462793046797e-22 -4.30791066876759e-06 7.2174782517444e-22 -1.55732281515598e-05)
(2.60215510146467e-05 -2.05970588038453e-05 -2.80245887031701e-20 -7.70512193003446e-06 1.05256377796025e-20 -1.83109352546529e-05)
(3.27853706669968e-05 -2.06791315116459e-05 -3.06501640241273e-20 -1.1835568403464e-05 1.19888714997137e-20 -2.09435185795905e-05)
(3.94753971309884e-05 -1.89287334052862e-05 -1.43329845875858e-20 -1.62553663779926e-05 6.18981090998201e-21 -2.32130661366932e-05)
(4.54281352114681e-05 -1.52685655105725e-05 8.04499939627279e-20 -2.03995571792192e-05 1.24933710014106e-19 -2.50210709602536e-05)
(4.99507824967642e-05 -9.72592791994855e-06 5.37478226914537e-19 -2.36640935898011e-05 8.03818078620006e-20 -2.6278804477177e-05)
(6.12737766971833e-05 -4.38797241641792e-06 7.69218475131762e-19 -2.97825823684163e-05 -2.01450947121567e-19 -3.14817488595622e-05)
(8.60184102629316e-05 -1.70048354391448e-06 2.42699647726824e-20 -4.21068470777061e-05 -1.901604215363e-19 -4.3898392350437e-05)
(0.000108162296231508 -1.35523981595533e-06 -8.86112624290915e-29 -5.3020253538297e-05 6.60357982098011e-28 -5.51255033882635e-05)
(0.000120848838719891 -1.05159698134139e-06 -3.12147392713071e-20 -5.92452054349474e-05 2.3420000533631e-19 -6.15851558904372e-05)
(0.000128497137891015 -8.23975046193957e-07 1.43201747930512e-18 -6.29974668674405e-05 2.37076714591022e-19 -6.54800250514614e-05)
(0.000131957632249355 -6.54167105137577e-07 1.67940067182873e-18 -6.46952203941664e-05 -2.49713192056531e-19 -6.72422371665694e-05)
(0.000132341768900915 -5.05314283938901e-07 3.28584344226979e-20 -6.48839486561041e-05 -2.47280458448423e-19 -6.74375869453972e-05)
(0.000130193607832327 -3.76223660976361e-07 7.70877777822865e-23 -6.38308934252781e-05 -1.44933715371701e-25 -6.63428095736934e-05)
(0.000126051614393456 -2.61600075068452e-07 7.57362904058593e-23 -6.18001768867992e-05 -7.95323345530623e-26 -6.42321659297205e-05)
(0.000120326532644525 -1.61447212151364e-07 -7.35946515157479e-23 -5.89932256860228e-05 2.77272878641875e-24 -6.13149106456777e-05)
(0.000113383770842922 -7.40427651941442e-08 2.56074990535517e-20 -5.55892046117428e-05 -2.2221380959753e-19 -5.77772313282904e-05)
(0.00010554138249259 5.94585434558014e-10 -1.49766625908032e-18 -5.17440963038696e-05 -2.21324473766465e-19 -5.37811502300555e-05)
(9.70883502236483e-05 6.27339039712025e-08 -1.58094747978836e-18 -4.75995972582442e-05 2.01919322930645e-19 -4.94739093082459e-05)
(8.82809670793926e-05 1.12759516962843e-07 -2.16966032923048e-20 -4.32813739651259e-05 1.99904071301704e-19 -4.49860959357681e-05)
(7.93451136126422e-05 1.51297500181391e-07 1.74869287760129e-23 -3.89001776745836e-05 -4.55471724833977e-24 -4.0432804883488e-05)
(7.04754683406817e-05 1.79202240389088e-07 -4.54127341734087e-23 -3.45514594170608e-05 -1.16521417651258e-25 -3.59132338759534e-05)
(6.18360658878327e-05 1.97484482937998e-07 7.07980230107141e-23 -3.03156442862421e-05 2.53200365634781e-25 -3.15109673659572e-05)
(5.35612863467052e-05 2.07273718017604e-07 -1.40261946887961e-23 -2.62586169110439e-05 -2.02655622800336e-24 -2.72944802726631e-05)
(4.57574700484699e-05 2.09742661240515e-07 -1.38119117798815e-20 -2.243251364225e-05 1.61519910815347e-19 -2.33179603185156e-05)
(3.85051331049266e-05 2.06066978087899e-07 1.04432732754013e-18 -1.88768089682767e-05 1.58413287749414e-19 -1.96224368168728e-05)
(3.18614836394022e-05 1.97376783256471e-07 1.00815257782433e-18 -1.56195494821816e-05 -1.27146315848522e-19 -1.62370625512946e-05)
(2.5863198317031e-05 1.84730251104496e-07 9.96967634273227e-21 -1.26787152967013e-05 -1.23900653003508e-19 -1.31805284663345e-05)
(2.05292298263285e-05 1.69090313387783e-07 -1.33698798253228e-23 -1.00635966713148e-05 -7.51574877926587e-25 -1.04624940928796e-05)
(1.5863574800484e-05 1.51314910551146e-07 2.00343625655058e-23 -7.77615116167712e-06 -3.93069788810911e-25 -8.08499789686358e-06)
(1.18578872115043e-05 1.32150829499454e-07 -5.9475049740705e-21 -5.81228501415627e-06 8.60821984178853e-20 -6.04378887935243e-06)
(8.49389037614717e-06 1.12235846047715e-07 4.80747141456675e-19 -4.16303577037355e-06 8.12531889635016e-20 -4.3295556091912e-06)
(5.74554138881323e-06 9.21027515952631e-08 4.0970793143157e-19 -2.8156334897533e-06 -5.27719660384223e-20 -2.92902910244953e-06)
(3.58093013676761e-06 7.21879662543969e-08 3.77564222057277e-21 -1.75443184312739e-06 -4.81046463007781e-20 -1.82595045372011e-06)
(1.96392298831458e-06 5.28395078867967e-08 1.50665758218831e-26 -9.61713879103464e-07 -1.07798159699592e-25 -1.00190850659888e-06)
(8.55534621651685e-07 3.43449382257057e-08 -4.19853291908939e-28 -4.18363564993443e-07 3.73007205581122e-26 -4.37039931566263e-07)
(2.15081263126214e-07 1.68996600877986e-08 -1.49504494543382e-25 -1.04432585465461e-07 -4.10750458451967e-26 -1.10615489695048e-07)
(1.08665083287582e-09 5.91240590041416e-10 -1.43697156299643e-26 4.11694110365992e-10 -3.63890643927021e-26 -1.49789552964156e-09)
(1.72042443542125e-07 -1.45431364881082e-08 -5.84038140539847e-26 -8.34796606730964e-08 -2.04628102036426e-26 -8.85362193468723e-08)
(6.86960986623033e-07 -2.84019834805148e-08 -2.37863035518345e-25 -3.36008751104702e-07 6.16763206399044e-26 -3.50846970900599e-07)
(1.50578522601663e-06 -4.08673204297679e-08 1.40029887452166e-24 -7.37537243244521e-07 -8.96987696638102e-26 -7.68017554462937e-07)
(2.58969817385134e-06 -5.1935150918309e-08 5.13654540066791e-25 -1.26903368162394e-06 -7.72077242548875e-26 -1.32026837210376e-06)
(3.90129495715132e-06 -6.16255684835081e-08 -2.30111905415425e-24 -1.91215804471245e-06 1.18363756894954e-25 -1.98854029068948e-06)
(5.40471232400577e-06 -6.99623145235037e-08 -9.71479908876102e-27 -2.64932684118553e-06 -1.91282784631941e-25 -2.75455903246547e-06)
(7.06564954776721e-06 -7.69821434146539e-08 -4.49113092672842e-24 -3.46372299416438e-06 2.67313612710203e-25 -3.60084619170913e-06)
(8.85135271994859e-06 -8.27287507977504e-08 5.03450897392742e-24 -4.33928781960771e-06 1.97875277669715e-25 -4.51071155154054e-06)
(1.07305418156249e-05 -8.72497382525485e-08 -1.35418198105948e-26 -5.26068528740037e-06 -2.68663290636616e-25 -5.46821589939185e-06)
(1.26733073320864e-05 -9.05938596651527e-08 0 -6.21325133076029e-06 0 -6.45811837205155e-06)
(1.46509635392093e-05 -9.28080621194488e-08 0 -7.18292190503259e-06 0 -7.46580166967934e-06)
(1.66358900988205e-05 -9.39366860303389e-08 0 -8.15615531160833e-06 0 -8.47719137545831e-06)
(1.86013205190924e-05 -9.40173111143517e-08 8.15893427448459e-21 -9.11982850969715e-06 1.18271002426934e-19 -9.47864813056823e-06)
(2.05211548827619e-05 -9.30832835444768e-08 7.79270323593254e-19 -1.00611452401557e-05 2.44376510159921e-19 -1.04568722671885e-05)
(2.2369663930207e-05 -9.11547686000154e-08 1.54792505883701e-18 -1.0967491031003e-05 -7.03055779304846e-21 -1.13987529313278e-05)
(2.41213147657472e-05 -8.82499602910245e-08 7.58333074398736e-19 -1.1826347580041e-05 -2.71656074839466e-19 -1.22912794331009e-05)
(2.57503111410733e-05 -8.43610981872537e-08 -1.11789977913801e-20 -1.26250676210751e-05 -1.38490967896523e-19 -1.31213067342993e-05)
(2.72305487949942e-05 -7.94912139822154e-08 3.54836557960602e-23 -1.33508525666409e-05 1.61645402499192e-24 -1.38755331521001e-05)
(2.85347577344437e-05 -7.35855080516616e-08 -1.0105394445822e-23 -1.39903327215519e-05 3.24930126518408e-26 -1.45400625578789e-05)
(2.96349652078845e-05 -6.66443200202757e-08 1.48207547867205e-20 -1.45297930178666e-05 1.51427616959574e-19 -1.510064154449e-05)
(3.05005181056886e-05 -5.85292949237525e-08 8.86356803285048e-19 -1.49542056426356e-05 1.50990736391374e-19 -1.55416495019063e-05)
(3.11006900948155e-05 -4.92814472950904e-08 7.9511982897964e-19 -1.52485044836124e-05 -1.56387288780137e-19 -1.58474309064606e-05)
(3.13979609612167e-05 -3.8746557071137e-08 -1.62442341230366e-20 -1.53942946043533e-05 -1.54870366986768e-19 -1.59988662169843e-05)
(3.13624106694338e-05 -2.72749758759445e-08 3.85497973421906e-23 -1.53769016515213e-05 -1.92403444959214e-24 -1.59807143241458e-05)
(3.09517132700036e-05 -1.38380475392612e-08 -1.89561818621968e-23 -1.51755783093273e-05 1.62627250615652e-26 -1.57714030665669e-05)
(3.01273271244799e-05 8.74740379062553e-10 -1.99867790360115e-23 -1.47714144763944e-05 -6.4422125604013e-26 -1.53513067954616e-05)
(2.88227025213709e-05 1.8980833319333e-08 -1.32937307689068e-22 -1.41317915117662e-05 5.38383389303523e-24 -1.46865046175802e-05)
(2.70048381875803e-05 3.7634509127474e-08 2.04386500263353e-22 -1.32404946026367e-05 4.18423016365119e-25 -1.37602151075636e-05)
(2.45778451497929e-05 6.19477966278644e-08 -7.20937110377043e-23 -1.20505278977427e-05 -1.05675496038421e-23 -1.25235598083634e-05)
(2.15556306898805e-05 8.35594513270088e-08 -6.58875227626258e-23 -1.05686168661537e-05 9.48005831873981e-24 -1.09837183786687e-05)
(1.77967191495059e-05 1.15250693520817e-07 1.74158228712108e-22 -8.72538700351959e-06 4.3569139150311e-24 -9.06861129051363e-06)
(1.35200208228499e-05 1.35815877468876e-07 -7.39365303670184e-25 -6.62784280223391e-06 -5.23796881480099e-24 -6.89011078065781e-06)
(8.45063802878204e-06 1.63249765917891e-07 3.81096959845702e-23 -4.1384363140582e-06 8.53024188138124e-25 -4.31090831288979e-06)
(3.72476767815576e-06 2.88191544176639e-07 5.79459098537128e-27 -1.81176224989906e-06 1.48052311718447e-24 -1.91243164138559e-06)
(2.81192929273158e-06 5.03277490373175e-07 8.94130186110735e-23 -1.34029901663342e-06 -3.19004330612968e-22 -1.47118887529549e-06)
(3.5345180587189e-06 1.18465712130276e-06 -7.41916161310683e-21 -1.59097525459264e-06 -1.57982229895049e-21 -1.94295985787428e-06)
(4.39940309148467e-06 2.10711513395723e-06 7.20479437052273e-21 -1.81543334623493e-06 1.80436893772721e-21 -2.58319470933335e-06)
(5.6339696315005e-06 3.56409110472145e-06 -3.10761006525974e-20 -2.03345946144975e-06 -1.28230445968312e-20 -3.59943023298715e-06)
(7.04252457473904e-06 5.56472386725339e-06 -1.96620397681111e-20 -2.09327736150472e-06 -7.23506931155756e-21 -4.94776273596581e-06)
(8.65197498413015e-06 8.27012410036967e-06 1.83112539607812e-20 -1.91177957872471e-06 9.94754132088948e-21 -6.73817375111467e-06)
(1.0754873638083e-05 1.20231168326662e-05 -1.880248726089e-20 -1.49672426785766e-06 -1.14445396129892e-20 -9.25537248079218e-06)
(1.33012905531421e-05 1.68054661733141e-05 -2.23001539149477e-22 -8.0850832793166e-07 1.91274263447588e-21 -1.24890351399599e-05)
(1.62549825751118e-05 2.24542618196215e-05 2.12868332461626e-20 8.98807766476968e-08 1.36662502487929e-20 -1.63399608732497e-05)
(1.96188460916972e-05 2.88250975288979e-05 -1.64288896704657e-20 1.10363138645412e-06 -1.30447374427098e-20 -2.07162619780079e-05)
(2.35580517166109e-05 3.5840128868476e-05 1.32181818044064e-21 2.04372236701237e-06 -2.97593027579664e-23 -2.55940950871975e-05)
(2.73828114562791e-05 4.23806242356343e-05 -1.92235812396633e-20 2.80531558693966e-06 -1.53352851170869e-20 -3.01790724160312e-05)
(3.02664539448299e-05 4.76037508943268e-05 -1.827461003026e-21 3.56130990781954e-06 -1.21700184973908e-21 -3.38176175527536e-05)
(3.23694295130474e-05 5.20766896556156e-05 -1.45756860739236e-21 4.5174144496174e-06 -9.51806867517552e-22 -3.6875780122244e-05)
(3.39412673104647e-05 5.62539665478974e-05 -1.07274829134023e-21 5.74481259131727e-06 -6.71163403115012e-22 -3.96741764585e-05)
(3.53273835304813e-05 6.06735588089063e-05 -1.85792318395147e-20 7.28679686502264e-06 -1.32326427740556e-20 -4.26013986977248e-05)
(3.71835666075079e-05 6.64382534937637e-05 -1.45640948047526e-21 9.262678419539e-06 5.02418454561673e-23 -4.64323139397563e-05)
(4.21804630324551e-05 7.70433480907054e-05 -1.20064852587961e-20 1.15246482977187e-05 -1.10398042833857e-20 -5.3689003018437e-05)
(5.34764425949426e-05 9.46571510987493e-05 -1.38488481851012e-20 1.26704134048186e-05 -1.12355718360924e-20 -6.6127015910979e-05)
(7.38765242999145e-05 0.000119336892545724 1.27508363914739e-20 1.03969267644827e-05 1.07675263018526e-20 -8.42481740844739e-05)
(0.000113896528673253 0.000156823849264312 2.57455173241275e-21 -1.60801185253481e-07 7.87134221550664e-22 -0.000113701613592532)
(0.000191164355218137 0.00020740815995656 -3.1103973594472e-20 -3.10793906225729e-05 -1.91582273030614e-20 -0.000160036948709362)
(0.000332223374825859 0.000250878504391274 1.58298473991024e-20 -0.000105908383285123 8.0623589695181e-21 -0.000226247110619458)
(0.000407807113150777 0.000179284971464322 1.52031638511406e-21 -0.000175311544702224 4.13981529652208e-22 -0.000232425833724963)
(0.000288726376592529 5.81915795223009e-05 1.01426380394245e-22 -0.000138253288101051 -2.2218625833079e-22 -0.000150427955591511)
(0.000133632390566672 6.75977738757901e-06 -8.13650503119559e-22 -6.55865500600769e-05 -3.20683319015296e-23 -6.80254308363775e-05)
(8.06544365117536e-05 -3.86247036673842e-07 -1.87108367891345e-25 -3.95615676943896e-05 1.53447545992002e-23 -4.10805434217979e-05)
(0.00175612024456865 -6.37600743436506e-06 7.48092321319776e-24 -0.000862343474153604 -1.48516792231516e-25 -0.000893508690999801)
(0.0016896690338312 -5.15708074585431e-05 2.42594018869104e-20 -0.0008325691483831 -4.30711698345572e-22 -0.000856842806898172)
(0.00127219442853526 -0.000153855523775849 6.61105921815532e-19 -0.00062185164224041 2.16886382578894e-18 -0.000650147722471729)
(0.00044970379204144 -0.000119353339336277 -2.99455696926471e-17 -0.000209619798990774 5.45805838200893e-18 -0.00024001198225491)
(1.16679936826213e-07 -2.93080145682184e-06 1.70473089636502e-18 3.66820333581569e-06 -4.84887245772706e-18 -3.7837480347077e-06)
(5.13648307617561e-05 -6.66069163074011e-05 9.21889340619847e-19 -2.78230573556059e-06 1.20038845251069e-19 -4.85679531830563e-05)
(3.25395680440372e-05 -5.02232531519457e-05 -4.23309769736803e-20 2.85734630195097e-06 3.11529160985547e-20 -3.53862973950746e-05)
(2.23984441136148e-05 -4.04883098763173e-05 -8.67468303424722e-19 5.68704355385292e-06 5.09105256689201e-20 -2.80770637059598e-05)
(1.76579139855678e-05 -3.53659657017407e-05 -1.19882774723688e-17 6.74033358294173e-06 9.47762625112514e-18 -2.43909295578411e-05)
(1.74641237559424e-05 -3.56079636308158e-05 -1.12198929563735e-17 7.14614240759003e-06 1.03226263454368e-17 -2.46028845600041e-05)
(1.91359904658351e-05 -3.73343803540135e-05 1.14403084710461e-18 6.79269725780677e-06 -1.38140396847608e-19 -2.5920910672735e-05)
(2.25419921894473e-05 -4.17888851739143e-05 6.16242608267965e-24 6.61403128810521e-06 -5.01255728575102e-24 -2.91472784195208e-05)
(2.72899423477354e-05 -4.85496541468425e-05 6.62475709123125e-21 6.7121584469408e-06 -4.21589393839494e-22 -3.39919022041559e-05)
(3.42427664084748e-05 -5.92891237347525e-05 -1.91024738261806e-19 7.38997893015625e-06 1.4157742206395e-19 -4.16202580124947e-05)
(4.44533889405526e-05 -7.58247804982598e-05 -1.19724419752451e-19 8.86683610703075e-06 8.83419277780928e-20 -5.33042321786428e-05)
(5.84151064853654e-05 -9.91100097020961e-05 1.12997533567805e-20 1.13240795325031e-05 -3.84735877656035e-22 -6.97182684455776e-05)
(7.65300794429822e-05 -0.000128291516352452 -1.41844683171165e-19 1.39611271359574e-05 1.2375356253515e-19 -9.04640646453526e-05)
(0.00010041530506858 -0.000161689795918813 3.87691166398845e-19 1.44557582813315e-05 -2.87972684245144e-19 -0.000114836608921792)
(0.000131556756627192 -0.000197063066845949 -2.39298340600909e-19 1.03637689211331e-05 1.62799180010291e-19 -0.000141877957904189)
(0.000171231707616217 -0.00023051573493074 -2.45434373626762e-19 -1.23705259632236e-06 1.89975508596369e-19 -0.000169943666821029)
(0.000221649739797974 -0.000258173428997604 3.1265175646365e-19 -2.34003979780738e-05 -2.19138356906606e-19 -0.000198189878909937)
(0.000284155065878171 -0.000276271874980234 -2.075277764647e-19 -5.77184478223846e-05 6.80623180997824e-20 -0.00022636870065385)
(0.000355623593105143 -0.000281048639486781 2.74031151513721e-19 -0.00010196585063111 -1.05677290110514e-19 -0.000253581660367712)
(0.000431961084504702 -0.000268989375487289 5.41454718424534e-19 -0.000152779794321559 -1.97240253675108e-19 -0.000279097552543617)
(0.000508493118627231 -0.000237947308215619 2.4069843113384e-22 -0.000205783618359614 1.39783474012783e-20 -0.000302618705576474)
(0.000583086206398655 -0.000189550132113893 -1.29325442077206e-18 -0.00025701355919777 -1.90976520268804e-18 -0.000325974844967172)
(0.000670061012202599 -0.000127102030512354 -5.36367138651291e-17 -0.00031135718737264 4.97145326088277e-18 -0.000358596235200436)
(0.000722965260001097 -6.15039216358396e-05 -5.26714058403793e-17 -0.00034627521562689 5.95253464173517e-18 -0.000376577059957778)
(0.000761506579330275 -2.72012084630429e-05 -1.74621406064836e-19 -0.000370553511693084 2.11108522695656e-18 -0.000390835805169394)
(0.000790827166089084 -1.42501833829916e-05 1.40883086296388e-27 -0.000386936826924705 -1.31287472437975e-26 -0.000403769196291204)
(0.000793955563570758 -5.14244184359006e-06 2.56197488448038e-19 -0.000388816109356861 -2.11449013344808e-18 -0.000405017936681139)
(0.000776101009501064 7.80762688284959e-07 -5.83620820857727e-17 -0.000380245409499386 -1.98888956038956e-18 -0.000395736867068264)
(0.000745007526302336 4.90496138066704e-06 -5.8632536221531e-17 -0.000365064937070421 1.80619115110106e-18 -0.000379828629247142)
(0.000704556946911988 7.86618280930576e-06 -2.82105362724369e-19 -0.000345248960686515 1.96394056001976e-18 -0.000359200215383774)
(0.000657538126204037 9.95728980125027e-06 1.12505841139458e-23 -0.000322192425250107 1.31193928557156e-22 -0.000335245117360363)
(0.000606302462009321 1.1387047302283e-05 4.08130263148955e-23 -0.000297058943616006 -8.14271490977434e-23 -0.000309150763888698)
(0.000553455592247083 1.23052259000389e-05 -2.1457004465079e-23 -0.000271131153071628 -4.05678580403384e-23 -0.000282239758779781)
(0.000500126034795331 1.28034971312387e-05 -2.28370156068045e-19 -0.000244965751901851 1.57284743898646e-18 -0.000255083750115167)
(0.000447254715122837 1.29519399517622e-05 4.4487381898653e-17 -0.000219026232530557 2.6662393700057e-18 -0.000228160027738474)
(0.000395628451871241 1.2808923334491e-05 4.31524138505474e-17 -0.00019369944583536 -1.23981721809081e-19 -0.000201868439447388)
(0.000345895973806439 1.24255387292628e-05 2.00508477938153e-19 -0.000169304051258835 -1.30825362885778e-18 -0.000176538955564236)
(0.000298588217349883 1.18473189531502e-05 -3.2456163538697e-22 -0.000146100630545397 -1.21404785517203e-23 -0.000152441849675871)
(0.000254131890207289 1.11154692969385e-05 4.11801665252241e-22 -0.000124298427888078 4.49472287168219e-23 -0.000129794520068966)
(0.000212861947594991 1.02668945081565e-05 -3.81614856420131e-22 -0.00010406155410669 -3.72909904717288e-24 -0.000108767759896972)
(0.000175032077251775 9.33451639670185e-06 2.64145913168408e-22 -8.55141660495416e-05 -2.30525386494224e-23 -8.94910611988733e-05)
(0.000140824142968603 8.34722547952488e-06 1.60314707548775e-19 -6.87451436810011e-05 -9.64919845672119e-19 -7.20573799116909e-05)
(0.000110356655747886 7.33006809764326e-06 -2.55859824988186e-17 -5.38122679131075e-05 -2.48797251820109e-18 -5.65274279104127e-05)
(8.36924480486372e-05 6.30436949429225e-06 -2.30262516042473e-17 -4.07460092589136e-05 -8.97618129334984e-19 -4.29335574343577e-05)
(6.08456876071479e-05 5.28798297790196e-06 -1.32552886826577e-19 -2.95529817516647e-05 6.42372779421333e-19 -3.12833199209135e-05)
(4.1788273705865e-05 4.2955472364247e-06 9.1218735639026e-23 -2.02190920233672e-05 1.87510286355199e-23 -2.15627122218851e-05)
(2.64556987358265e-05 3.33879908218709e-06 -7.31707382340096e-23 -1.271242050314e-05 -1.1611672250797e-23 -1.37391560736485e-05)
(1.47524116763074e-05 2.42688492428308e-06 1.10107213848143e-19 -6.985856560668e-06 -3.37813973519392e-19 -7.76422561500485e-06)
(6.55671511715467e-06 1.56668890773837e-06 -6.44511753768182e-18 -2.97950123630558e-06 -1.76003496507862e-18 -3.57614093127475e-06)
(1.72522232315469e-06 7.63145070890559e-07 -3.43984546838687e-18 -6.22853223107532e-07 -1.40415598338992e-18 -1.10203845544606e-06)
(9.68875753031091e-08 1.95394978302782e-08 -9.1926692641498e-20 1.63216381738383e-07 1.2910050488741e-21 -2.60025941457496e-07)
(1.49662729967663e-06 -6.6222525897924e-07 2.56808568504234e-25 -5.35307447971738e-07 3.38691728773492e-25 -9.61031513417042e-07)
(5.73854699321661e-06 -1.28135415658407e-06 2.55363476251319e-25 -2.6271878142814e-06 7.15702928873455e-25 -3.11042595782575e-06)
(1.26288746946444e-05 -1.83723852754616e-06 2.34714787888177e-23 -6.01739147336955e-06 -3.62360047113809e-24 -6.60950017291816e-06)
(2.19684775636846e-05 -2.32781378909499e-06 -2.91061280668029e-23 -1.06083741955557e-05 1.96661808966629e-24 -1.13566960185884e-05)
(3.35547197461503e-05 -2.75377097470981e-06 1.22466827182841e-23 -1.63006155948674e-05 -9.86704060337982e-25 -1.72489289550768e-05)
(4.71833071364471e-05 -3.12006348724287e-06 -3.5596849358787e-25 -2.29936347379172e-05 2.27831023053721e-26 -2.41824169479006e-05)
(6.26499751229776e-05 -3.42964173397327e-06 -3.21813312282362e-23 -3.05872748999862e-05 4.70666947170582e-24 -3.20530833363018e-05)
(7.97517212280061e-05 -3.68419391380701e-06 6.04862943268735e-23 -3.89820777093661e-05 -6.10347414174323e-24 -4.07574150712739e-05)
(9.82876299094087e-05 -3.88578066280423e-06 -2.26206732397429e-24 -4.80795290396393e-05 -2.86895234111309e-24 -5.01930414513921e-05)
(0.000118059382226961 -4.03662924589487e-06 -2.67811989412234e-23 -5.77823933220758e-05 4.14627921830461e-24 -6.02589094241103e-05)
(0.000138871693165932 -4.13883906643159e-06 9.71740147110873e-23 -6.79949320600262e-05 -2.89183399259866e-24 -7.08555023293294e-05)
(0.000160532444567146 -4.19430873008497e-06 -1.6819808186056e-22 -7.86229604802907e-05 4.4023472746369e-24 -8.18849161552158e-05)
(0.000182852584995507 -4.2046942744954e-06 6.88046881105002e-23 -8.9573798253902e-05 -1.59051053093209e-24 -9.32508087011904e-05)
(0.000205645811201381 -4.17136622959638e-06 -7.36857589597615e-23 -0.000100756111704738 1.5083083928516e-24 -0.000104858238878918)
(0.000228728008195465 -4.09536101672874e-06 -1.628173419969e-25 -0.000112079638533645 2.95441052594372e-27 -0.000116613382148424)
(0.000251916487867769 -3.97735184557651e-06 -8.13729091793302e-23 -0.000123454812340332 2.04586066840442e-23 -0.000128423144730938)
(0.000275028927990219 -3.81757487091205e-06 -1.47727302174089e-19 -0.000134792242162135 -1.6626573891201e-18 -0.000140194623234854)
(0.000297882136362293 -3.61582206619693e-06 -4.86832580011078e-17 -0.000146002102468256 -2.87624330124188e-18 -0.000151834478994848)
(0.000320290347745852 -3.37129414503208e-06 -1.00024386528868e-16 -0.000156993299461585 1.07218683616097e-18 -0.000163248068965645)
(0.000342063443118572 -3.08266555130688e-06 -5.11810106479858e-17 -0.000167672588608655 4.22108505632548e-18 -0.000174338547714923)
(0.000363004259251076 -2.74773622184901e-06 1.80629853195569e-19 -0.000177943261935985 1.93648725093942e-18 -0.000185005490117336)
(0.000382906199942812 -2.36374414387466e-06 -8.49337236037244e-22 -0.000187703953221139 7.77965099170811e-23 -0.000195143697757449)
(0.000401548751670947 -1.92646093302395e-06 4.53320905785699e-22 -0.000196846461113604 2.25739253350911e-23 -0.000204640892149858)
(0.00041869461492635 -1.43130047857631e-06 -2.25236483931765e-19 -0.000205254287705716 -2.1349242956016e-18 -0.000213376307926326)
(0.000434081774960405 -8.70969969923003e-07 -5.91572809760438e-17 -0.000212798799777943 -2.05554362804819e-18 -0.000221216603564231)
(0.000447421340194651 -2.38774840543948e-07 -5.91958949802155e-17 -0.000219338154398556 2.28278721712031e-18 -0.000228014774522612)
(0.000458254648531256 4.75671160679458e-07 2.45493134721235e-19 -0.000224647280488554 2.27543483892822e-18 -0.000233537299845929)
(0.000465962856275332 1.27612760427541e-06 -1.95050463844355e-22 -0.00022842175563705 2.87385097181396e-23 -0.000237469852557707)
(0.000470207219326751 2.18759443111954e-06 1.47859414046246e-21 -0.000230494678376061 -5.22784466664533e-23 -0.000239640641568281)
(0.000470613438535373 3.2208327563131e-06 -1.31523655216635e-21 -0.00023068090615858 -1.23096675084292e-22 -0.000239860567010153)
(0.000466464542776918 4.42552576412033e-06 1.42543403391448e-21 -0.00022862780370002 1.28786768697716e-22 -0.000237765402322526)
(0.000457058070350081 5.79205554083151e-06 -3.39315895575099e-21 -0.000223986723991982 1.82023245545099e-23 -0.000233001438935677)
(0.000441203023883608 7.42076602150044e-06 1.97394694072361e-21 -0.000216170454033954 -2.67605679189901e-23 -0.000224965073577954)
(0.000417959384242819 9.2436133982654e-06 1.96459188071856e-21 -0.000204706527962341 1.01372655175354e-22 -0.000213188893216206)
(0.000385241444046514 1.14772876346723e-05 -3.22387678331735e-21 -0.000188557790969618 -9.09913068458208e-23 -0.000196624659779633)
(0.000341578301575891 1.39149471593742e-05 6.60883994661429e-25 -0.000166966505036824 5.34759763751737e-24 -0.000174559423474719)
(0.000283170115169876 1.6687390624038e-05 3.79029245647696e-23 -0.000137839337397147 2.21768779348861e-24 -0.0001452871872575)
(0.00022385157513291 2.38335633068064e-05 1.58956845495831e-20 -0.000107817082441396 1.31457509157614e-21 -0.000115999689304384)
(0.000195001978173381 3.57333035857086e-05 1.23110004051117e-19 -9.20201503978682e-05 1.52070498027374e-20 -0.000102950939404854)
(0.000181726210622253 5.38730629226869e-05 2.55208042583308e-19 -8.22175059379095e-05 6.01643965037741e-20 -9.94788580422664e-05)
(0.000180871010564444 7.49191987702631e-05 -8.55831507188485e-20 -7.67716891854079e-05 -4.54317608924541e-20 -0.000104068097827333)
(0.000182278402257273 9.9657056507899e-05 4.6211132943311e-19 -6.99859842431662e-05 1.43233477519752e-19 -0.0001122587370249)
(0.000185696294831125 0.000127932879051376 4.24765332296413e-19 -6.15348200724735e-05 1.96408950406529e-19 -0.000124124233764423)
(0.000189836044026395 0.000160339940927872 -4.1872203329713e-19 -5.02835838388202e-05 -2.02231080274412e-19 -0.000139510602820992)
(0.000196482332734872 0.000198477314424136 4.16321490366773e-19 -3.66276609249477e-05 2.1165714369822e-19 -0.000159806724997744)
(0.000206971528098556 0.000243315837356247 -3.87905500258105e-19 -2.1050146196214e-05 -2.38600340120429e-19 -0.000185865616640824)
(0.000222352181062052 0.000294686563032106 -3.61941103260341e-19 -4.6103481416758e-06 -2.39996225474754e-19 -0.000217676523432397)
(0.000242392883738036 0.000351917882202838 1.49697570366692e-19 1.21602762063302e-05 1.06774585805268e-19 -0.000254476809266518)
(0.000268436987582887 0.000414798523600083 -1.83489429465117e-19 2.778495382391e-05 -1.17580050734305e-19 -0.000296133092594138)
(0.000299257090594366 0.000479844790004954 3.11969569876147e-19 4.11598179967708e-05 2.50947856803451e-19 -0.00034031480393949)