/*--------------------------------*- C++ -*----------------------------------*\
  =========                 |
  \\      /  F ield         | OpenFOAM: The Open Source CFD Toolbox
   \\    /   O peration     | Website:  https://openfoam.org
    \\  /    A nd           | Version:  7
     \\/     M anipulation  |
\*---------------------------------------------------------------------------*/
FoamFile
{
    version     2.0;
    format      ascii;
    class       volScalarField;
    location    "9000";
    object      kDeficit;
}
// * * * * * * * * * * * * * * * * * * * * * * * * * * * * * * * * * * * * * //

dimensions      [0 2 -3 0 0 0 0];

internalField   nonuniform List<scalar> 
15600
(
0.027256789916848
0.024841570165744
0.014617131756505
0.00612358323279777
0.00173236114234288
0.0012693412059125
0.00134068613765962
0.000995038066767071
0.000741891136759385
0.000598863512487945
0.000502585676165612
0.000447532685583594
0.000428265158450172
0.000439486953600983
0.00048234709195682
0.000557002044186619
0.000662790162665983
0.000791137037569124
0.000940743474954918
0.00110856142483904
0.00128665359823557
0.00146555247101917
0.0016569214712032
0.00186870431808251
0.00209242173625799
0.00232720710308206
0.00257267430951196
0.00283452978686089
0.00355140594025758
0.00452827974170564
0.00536275850392718
0.00609236744987378
0.0067589519019446
0.00737088091705834
0.00792460745239919
0.0084146978348083
0.00885014525458156
0.00923129212781748
0.00955946718196845
0.00983626109031767
0.0100637383571744
0.0102443916897967
0.0103811079643116
0.0104770505638784
0.0105355737484421
0.0105601121063288
0.010554100123914
0.0105208932604155
0.0104637124379581
0.0103855985726189
0.0102893844229697
0.0101776746089296
0.0100528384204654
0.0099170080871775
0.00977208539179556
0.00961975008926102
0.00946147661120528
0.00929854027451888
0.00913201521216392
0.00896285179538521
0.00879182483593056
0.00861957432172751
0.00844665036110055
0.00827346883428108
0.00810034628996759
0.00792751690088256
0.00775513634574245
0.00758328890704637
0.00741199322234795
0.00724120614510336
0.00707082691564315
0.00690069699029886
0.00673060327096236
0.00656027181994604
0.00638937259602685
0.00621750140616883
0.0060441930707595
0.0058688774532406
0.00569091929651599
0.00550951645504583
0.00532388899303143
0.0051319192583854
0.00493464486655854
0.00473255161169769
0.00452327469511393
0.00430276073266792
0.0040685155230685
0.00381484173519815
0.00353895584516897
0.00323242769347638
0.00288423818047002
0.00244494373603907
0.00218228533030814
0.00239636080200326
0.00269135394629494
0.00309714240116843
0.0035604148393721
0.00410417888333644
0.00476414915675818
0.00557501208895625
0.00645100114999617
0.00739255807137476
0.00837651502999136
0.00937360636022193
0.0102061611321866
0.0110047675876209
0.0118695753828151
0.0128568108933388
0.0140830791319757
0.0158351227427598
0.0185920646565538
0.0220287263498666
0.0263520447551638
0.0323319977562099
0.0396478747435437
0.044673024357333
0.0371870086355338
0.0288445423248401
0.0234789316119055
0.0256192981787862
0.0988512315770338
0.0906562599423092
0.0609119565266176
0.0259598445526891
0.00686253918754863
0.00463747004874468
0.00488477090841153
0.0036586469508316
0.00272765328867091
0.0021972839636261
0.00184108861534738
0.00163719290054116
0.00156392594612278
0.00160367346504955
0.00176095008416211
0.00203634602696539
0.00242492738275975
0.0028962169011781
0.00344151254005994
0.00404216382545767
0.00466338221896822
0.00527886512253684
0.00592160023333546
0.00660283326689862
0.00730393835959052
0.00804218366861451
0.00890213918307558
0.0102661456006699
0.0127117390404011
0.0153056925889309
0.0173872925126069
0.0191670769091757
0.0207539242712386
0.0221863800682655
0.0234724138265698
0.0245996940513157
0.0255807490425959
0.026423586328702
0.0271370285063093
0.0277292693822833
0.0282085279682736
0.0285830473239064
0.0288611350959177
0.0290510492334161
0.0291609271760928
0.0291986716267303
0.0291718741953783
0.0290877366184677
0.0289530204641096
0.0287740075721492
0.0285564812081051
0.0283057158652878
0.0280264827702095
0.0277230614825024
0.0273992614979788
0.0270584461682479
0.0267035655414485
0.0263371748874449
0.0259614204872068
0.0255781978808016
0.025189075544592
0.0247953240739935
0.0243980119958246
0.0239979538234161
0.023595751349782
0.0231918241547341
0.0227864191683277
0.0223796219533579
0.0219713654649322
0.0215614349363195
0.0211494721217153
0.0207349716287526
0.0203172808451336
0.019895583406027
0.0194688973451945
0.0190360348986306
0.0185956076483172
0.0181459366440677
0.0176850895619757
0.0172106821765447
0.0167201716913977
0.0162097316303917
0.0156859878995496
0.0151475472592602
0.0145841363263584
0.0139850377623739
0.0133405371814403
0.0126361471731988
0.0118570170613312
0.01098227810581
0.00996878901046703
0.00867093782895145
0.00771953678341383
0.00809035234247131
0.00899718950922924
0.010271692926189
0.0117704933837478
0.0135557925663428
0.015739337633948
0.0184185473365294
0.0213727213703382
0.0245812721029805
0.027982254601117
0.0314811456841539
0.0345930734685478
0.0376385308642473
0.0409344227771878
0.0446894274816903
0.0492924850671968
0.0556821717951305
0.0653799730856599
0.0775091165758093
0.0925723641028761
0.112404489098412
0.135698976206938
0.153544870550618
0.145122928051906
0.123708562493416
0.100978087942852
0.0978315676376671
0.13866086591298
0.123511497279268
0.0968609655404611
0.0536309736299353
0.0144312144621405
0.00836959309042036
0.00857064280576473
0.00659836479634698
0.0049912124950463
0.0040295758415486
0.00337735145140981
0.00299292175172288
0.00284350938204153
0.002895281775723
0.00314880697123569
0.00359050260241971
0.00418848877807881
0.00486688583222859
0.00558173577962309
0.00628137583459169
0.00691441971832258
0.00746431872835817
0.00799270569518417
0.00854561478218207
0.00914778027441395
0.00986877114148398
0.0108272287703674
0.0121188685067355
0.0140420674269846
0.0160365366341464
0.0176887684863379
0.0191311769504155
0.0204122378993756
0.0215359559161603
0.0224992462331332
0.0233594270364017
0.0241166501397673
0.024776769946953
0.0253451322865502
0.0258267753484372
0.0262267828636108
0.0265503022530464
0.0268025711183631
0.0269888660089896
0.0271144546133974
0.0271845306754015
0.027204158638398
0.0271782206211507
0.0271113748439469
0.0270080223859626
0.026872284414892
0.026707986715592
0.0265186528701508
0.0263075035345758
0.0260774614352413
0.0258311607083746
0.0255709576282478
0.0252989448818383
0.0250169489881721
0.0247265797881673
0.024429234812811
0.0241261003134955
0.0238181832494396
0.0235063164624094
0.0231911691857854
0.0228732623867207
0.0225529783614102
0.0222305682906834
0.0219061580895077
0.0215797522733918
0.0212512359281346
0.0209203738033954
0.020586807377358
0.0202500475259146
0.019909465223577
0.019564274543376
0.0192135145391595
0.0188560163331264
0.0184903709173996
0.0181148700959307
0.0177274590522239
0.0173263237715859
0.0168993530538075
0.0164492083891815
0.0159760398782504
0.0154723725877319
0.0149294384879023
0.0143344881013855
0.0136727171049486
0.012919066954474
0.0120476854193184
0.0109166492151763
0.01004394650851
0.0102490739945319
0.0109736931109239
0.0121583743034925
0.0137005138308989
0.0156154314553376
0.017990128494288
0.0208891808731105
0.0242001378549744
0.0278610165346981
0.0318245661596152
0.0360111242568817
0.0401827205092021
0.0445011507071437
0.0492523273631233
0.0547032663882447
0.061217263513739
0.0695165635836202
0.0805369967699093
0.0935834909898685
0.108145096562779
0.12364144381751
0.138168593964836
0.148331096659627
0.14860900667952
0.148332512877947
0.148158906462344
0.148465068530761
0.11961923372236
0.106862792802866
0.0933659408213099
0.0713650443791897
0.0268418865698641
0.0116338220642423
0.0104420634937537
0.00838358245942171
0.00655842422096879
0.00534218442706951
0.00448493621836881
0.00395426759188387
0.00371589972213275
0.003721507195722
0.00394747647481446
0.00434325613012958
0.00483785839932423
0.00534210114744331
0.00581773370298352
0.00624040324619014
0.00660279832273739
0.00692753980453318
0.00727443890332176
0.00768494440727796
0.00819273427618159
0.00886042651580716
0.00976092816827809
0.0109205252571072
0.0124053281058184
0.013880026711966
0.015129696145473
0.0162326677990527
0.0172102288880337
0.0180565064802182
0.0188019643568141
0.0194716031542564
0.0200648149224789
0.0205854526807543
0.0210368749073277
0.0214224289981425
0.0217455784180016
0.0220099098664758
0.0222191259561198
0.0223770058956687
0.0224873605020594
0.0225539829601479
0.0225806028525875
0.022570844826883
0.0225281939998328
0.0224559684530422
0.0223572987885803
0.0222351138539864
0.0220921323088418
0.0219308594514981
0.021753587964399
0.0215624025489199
0.021359187388959
0.02114563150354
0.0209232321279282
0.0206933173808156
0.0204570578284894
0.0202154701005401
0.019969428994618
0.0197196806443505
0.0194668478477026
0.019211439565405
0.0189538590643609
0.0186944101827357
0.018433302354581
0.0181706545240171
0.0179064974436527
0.0176407748555103
0.017373342246046
0.0171039647692594
0.0168323109134906
0.0165579465322602
0.0162803200487403
0.015998752296488
0.0157124048566276
0.0154202691924977
0.0151210673238286
0.0148138785278847
0.0144925481321606
0.0141505358443072
0.0137918880538694
0.0134137165556998
0.0130105638391993
0.0125747487670005
0.0120962540398663
0.0115591852522847
0.0109474283905502
0.0101755839887579
0.00952788714154404
0.00950598611459662
0.00989967294859668
0.0106978321523501
0.0118390661964168
0.0133050405131176
0.0151336350394604
0.0173517922156619
0.0199138066036758
0.02276691941129
0.0258755045888094
0.0291872207935012
0.0326219464639539
0.0362413880936192
0.0402107630440991
0.044724995531826
0.0500192959392924
0.0564512013891007
0.0643177614446054
0.0732232315828162
0.0825498449503613
0.0913849346912197
0.0988424200928298
0.104865389582469
0.108663385250807
0.112237557313916
0.120443289204021
0.125865905151899
0.0959705023991996
0.0876485493421331
0.0808117817029956
0.0761064200575194
0.041539346171133
0.0154005652840471
0.0105830630214589
0.00855234336899608
0.00690398915272301
0.00568244831326722
0.00478130206249703
0.00420166847576356
0.00391159278075976
0.00386184136126667
0.00401214449220644
0.00429778380506421
0.0046456792804333
0.00499049000274335
0.00531054546441333
0.00559785896670668
0.00585996289879862
0.00612345291669724
0.00643017368529801
0.00681183758132893
0.00730298283452723
0.00795583322255884
0.00881869007862774
0.00989360373702912
0.0111149907899304
0.012261239433563
0.0132542631145928
0.01414022027607
0.0149265835949797
0.0156170593291542
0.0162336532120182
0.0167884273533719
0.017281353648281
0.0177152495600942
0.0180925715780045
0.0184158652465486
0.0186878017853497
0.018911185522848
0.0190889345830643
0.0192240488916239
0.0193195697259594
0.019378539485284
0.0194039626554828
0.0193987716035895
0.0193657972220239
0.0193077455650126
0.0192271799940718
0.0191265085498651
0.0190079758187398
0.0188736592891818
0.0187254687665072
0.0185651497672009
0.0183942892447559
0.0182143139251585
0.0180265017845376
0.0178319912523744
0.0176317935666456
0.0174267969619008
0.0172177731989921
0.0170053899884392
0.0167902154114028
0.0165727249472471
0.0163533082960723
0.0161322748530302
0.0159098582179381
0.0156862199571816
0.015461452112958
0.0152355791412094
0.0150085578650061
0.014780277426492
0.0145505555336752
0.0143191364714919
0.0140856810001739
0.0138497633467708
0.0136108479992381
0.0133682912576557
0.0131212556685922
0.012869153524361
0.0126087307794793
0.0123346998133758
0.0120481918954625
0.0117485975658481
0.0114328284828436
0.0110963783661094
0.0107327861788763
0.0103328550549175
0.00988568014395362
0.0093437484597767
0.00884377896792595
0.00869870746766379
0.00889665995061367
0.00943726552887727
0.0102820156495347
0.0114039671505342
0.0128140208657124
0.0145191638511626
0.0164955456833319
0.0187042006212978
0.0211161893151451
0.0236942145861796
0.0264104675594789
0.0292931272945893
0.0324339805638877
0.0359593944469712
0.040019318111479
0.0447977915394485
0.0503686849084597
0.0565091664982731
0.0627992518835177
0.068583691998087
0.0734387668673129
0.0778796431679415
0.0826166337439175
0.0866390588651469
0.0933786569089283
0.098369981024616
0.0783312010524312
0.0731076971252713
0.0690865080368086
0.0731200565648483
0.0528190116640808
0.0207054124546576
0.0105723248791727
0.00807398684134393
0.00659709379565798
0.00546710794432535
0.00461837464505201
0.00406563828735554
0.00377826523138898
0.00371206246954818
0.00382147027119472
0.00404168874085387
0.00430772001625033
0.00457244354681242
0.00482209694834317
0.00505493557328505
0.00528281893180821
0.00553026742265702
0.0058283713862641
0.0062039493744774
0.00668991212630529
0.00732880259813337
0.00815187463890052
0.00913934541752429
0.0101755701659642
0.0111152067411936
0.01194513899046
0.012691542652706
0.0133569610300498
0.0139486307157462
0.0144805708459679
0.0149593893383157
0.0153854713512509
0.015761024569337
0.0160880133187333
0.0163685264194791
0.016604775762692
0.0167991046706947
0.0169539640794928
0.017071885087182
0.017155442299621
0.0172072191114005
0.0172297734315955
0.017225608000424
0.0171971446473449
0.0171467037550386
0.0170764884038117
0.0169885730766045
0.016884896109813
0.0167672560759688
0.0166373107344297
0.0164965813855743
0.0163464521276848
0.0161881727831524
0.0160228688897389
0.0158515462908627
0.0156751024013929
0.0154943307092606
0.0153099253822036
0.0151224919270987
0.0149325514414452
0.0147405464063249
0.0145468465679861
0.0143517538749751
0.0141555066424689
0.0139582831532904
0.0137602042863749
0.0135613357836188
0.0133616889842211
0.0131612217449333
0.0129598364859121
0.0127573800151108
0.0125536370086232
0.0123483298548141
0.0121411026747687
0.0119315263916574
0.0117190344287723
0.0115032210348592
0.011282243895628
0.0110525462685766
0.0108137827811619
0.0105659843576696
0.0103074823259136
0.0100356837160278
0.00974653039699358
0.00943480795227263
0.00909326954030577
0.00869706309081937
0.00830645922886541
0.00811699490410219
0.00820151597652078
0.00857777997866431
0.00922286527810295
0.0101105693923437
0.0112384174045034
0.0126026421377884
0.0141867503441225
0.0159614071436703
0.0179023431484716
0.0199809526410587
0.0221888770769314
0.0245438389542216
0.0271005392738634
0.0299427334996649
0.0331717055470785
0.0368912746575968
0.0410961868451168
0.0456448584069851
0.0502653820436825
0.0545129059088545
0.0581502783164418
0.061691181201481
0.0662310667150313
0.0704405051321598
0.0756598751065288
0.0792384272272803
0.0659337329782641
0.0624963087060834
0.0597734918497229
0.0671554777806536
0.0585739106144404
0.027174427417005
0.0111906757705211
0.00765795538497515
0.00620791212898013
0.00516044849609813
0.00437738609144765
0.00386820284364687
0.00360068608235464
0.0035340499063942
0.00362185151093999
0.00380309392330918
0.00402113463736526
0.0042404405250768
0.00445185290019111
0.0046570110300174
0.00486927921007021
0.0051106618298929
0.0054060514904554
0.00577913133438126
0.00625965562016954
0.0068812289914174
0.00766154675640345
0.00856518394626887
0.00946582741867176
0.010269019796706
0.0109893045037107
0.0116408607687899
0.0122246098758837
0.0127481913041944
0.0132205603441503
0.013645772087197
0.0140244319994427
0.0143583517393858
0.0146491888392454
0.014898738506208
0.0151089156179114
0.0152817631106703
0.0154194263720606
0.0155241284981966
0.0155981364067419
0.0156437295661056
0.0156631689389603
0.0156586702355337
0.0156323806409053
0.0155863602097557
0.0155225674676745
0.0154428491164281
0.0153489330348393
0.0152424248237692
0.0151248071523147
0.0149974433135232
0.014861573340881
0.0147183214774635
0.0145687028367734
0.0144136267245646
0.0142539065960121
0.0140902646841203
0.0139233359413173
0.0137536771222939
0.0135817710162127
0.0134080315634823
0.0132328090936979
0.0130563948903018
0.0128790251240319
0.0127008843322661
0.0125221081315155
0.0123427856648832
0.0121629608781725
0.0119826340017898
0.0118017608716868
0.0116202537705681
0.0114379775239475
0.0112547507849877
0.0110703355063792
0.0108844430649055
0.0106966884830566
0.0105067912009188
0.0103136611157394
0.010114993258989
0.00990992696537219
0.00969866015478759
0.00948035854696451
0.00925364216098605
0.009016109331623
0.00876502397852735
0.00849574107882128
0.00819719718926883
0.00789096186283249
0.00769634893557521
0.00771520285834284
0.00798246521223062
0.00848815056862598
0.00921024816674304
0.0101399701866455
0.0112676243350912
0.0125792739786257
0.0140518119001257
0.0156644317685989
0.017394157816776
0.019240825652722
0.0212189164072954
0.0233640352829129
0.0257343004879393
0.0284020511501553
0.0314300984110005
0.0347829630821504
0.0383599044466025
0.0419801204709703
0.0453338547069856
0.0482685501758608
0.0512070315039025
0.055227285558526
0.0593344508059723
0.0637624718748759
0.066403552580634
0.0569995963305733
0.0545856936653538
0.0525869399077085
0.0605576075524716
0.0609696345995986
0.0338602754592718
0.0126363440505037
0.00750250036828808
0.00591697493922609
0.00491421547802779
0.00418131469825933
0.00370785653539524
0.00345798368099433
0.00339197262638741
0.00346378669318773
0.00361691854121783
0.00380176013896813
0.0039904006000259
0.00417678836558677
0.00436462823416542
0.0045676051281973
0.00480544958524475
0.00509909201281179
0.00546960942148837
0.00594294609456058
0.0065447604435268
0.00728214955822331
0.00811076645384931
0.00890996246904232
0.00961847642702252
0.0102612326876854
0.0108451919769976
0.0113708951821554
0.0118450861404423
0.0122736863112634
0.012659438066961
0.0130030490369278
0.0133060569765925
0.0135699113843664
0.0137962046695901
0.0139866470134628
0.0141430739880695
0.0142674202034868
0.0143616960671737
0.0144279557980947
0.0144682683044344
0.0144846882806467
0.0144792313818822
0.0144538526367654
0.014410429166198
0.0143507468358743
0.0142764907031885
0.0141892384786612
0.0140904572601013
0.0139815041677732
0.0138636258145442
0.0137379578626425
0.0136055319513053
0.0134672808837705
0.0133240416350433
0.0131765641378487
0.0130255159575913
0.0128714860696639
0.0127149927195691
0.0125564876688752
0.0123963609258947
0.0122349455495698
0.0120725219566973
0.0119093217042743
0.011745530889399
0.0115812929337407
0.0114167111549724
0.0112518504424849
0.0110867391171912
0.0109213691886851
0.0107556978630816
0.0105896455729885
0.0104230981518723
0.0102559003718531
0.0100878624281313
0.00991872867421253
0.00974831459416494
0.0095759677672445
0.00940020009133635
0.00922015100043729
0.00903600276452646
0.00884744844576291
0.00865391642746429
0.00845417978095428
0.00824713208541001
0.00803004048688874
0.00780032646268412
0.00756010091136588
0.00737842298789377
0.00736052571933643
0.0075534225198485
0.00795805286481296
0.00855784006611914
0.00934152793034011
0.0102962875489439
0.0114090693521191
0.0126608193979993
0.0140333515638419
0.0155076420770528
0.017087208783281
0.0187855528541189
0.02062797160081
0.0226567549083992
0.0249259616358509
0.0274753612080169
0.0302581977339765
0.0331968209024209
0.0361665102760689
0.0389432049005959
0.0414159193876751
0.0439169992347088
0.0473915151183206
0.0512045015956707
0.0551602752525912
0.0573165954835401
0.0502738732558314
0.0484877732376124
0.0469902298795168
0.0542502399886517
0.0609786520848947
0.0401252805150857
0.0150249954601484
0.00765442573277713
0.00575358588273989
0.00475025575727774
0.00404728177622152
0.00359713200325472
0.00335818094835962
0.00328994943927832
0.00334697038795819
0.00347697362199095
0.00363604396825125
0.00380149387112592
0.00396945633459025
0.00414488359991477
0.0043411979813599
0.00457616730204367
0.00486790193774125
0.00523505681040925
0.00569964589903457
0.00628051579915119
0.00697685298487432
0.00774054580845153
0.00846251209724712
0.00910280767912857
0.0096887536996215
0.0102229825244714
0.0107058843759956
0.011143095771519
0.0115386511141342
0.01189456031274
0.0122115668950361
0.0124910108686574
0.012734192968204
0.0129425595779191
0.0131176747412034
0.0132612264613234
0.0133749999635588
0.0134608551315912
0.0135206957379176
0.0135564415997781
0.0135700010768482
0.0135632474816065
0.0135379986285709
0.013496000455112
0.0134389144296612
0.0133683085497704
0.0132856511765166
0.0131923083118472
0.0130895442574524
0.012978518602713
0.0128602896037239
0.0127358192187487
0.012605977783393
0.0124715470567193
0.0123332280634198
0.0121916457943651
0.0120473530300384
0.0119008372995686
0.0117525251516671
0.0116027866659508
0.0114519399706124
0.0113002553765588
0.011147959066608
0.0109952364523864
0.0108422350283288
0.0106890670447592
0.0105358114939027
0.0103825162533697
0.0102291990538582
0.010075849476217
0.00992242844098601
0.00976887102397645
0.00961508305539689
0.00946094780948084
0.00930630574528559
0.00915104986572541
0.00899480194391893
0.00883661923634928
0.00867581194737637
0.00851254695548274
0.00834685894107613
0.00817873353208775
0.00800779505547798
0.00783405157047281
0.00765621799919727
0.00747690845706668
0.00728878056443575
0.00712771067652836
0.00709112979002278
0.00723268101704526
0.00756210139378115
0.00806847283712591
0.00874026068677671
0.00956323589039265
0.0105247019016895
0.0116083172348914
0.0127979115760267
0.0140773891103471
0.0154519254546886
0.0169347042257006
0.0185452050383126
0.0203156360284288
0.0222879182305542
0.0244879269901261
0.0268658976996198
0.0293589482404098
0.0318779146104052
0.034253928933861
0.036396546193652
0.038562341478454
0.0415454900094801
0.0449866225006524
0.0485730212076202
0.0504848168992492
0.0449948398267028
0.0436285527236926
0.0425325935504802
0.0485918375165302
0.0593600684147955
0.0453223029155886
0.0184225740071213
0.00815252679317973
0.00571901391053888
0.004662403325486
0.00396912701943123
0.00353026105826054
0.00329526364924563
0.00322143822621159
0.00326359029493965
0.00337312731714939
0.00351069819336143
0.00365729937555443
0.00381060291894242
0.00397626145022635
0.00416713828801616
0.00439930654875044
0.00468868257845961
0.00505161075529754
0.00550634483316526
0.0060660680639999
0.00672434951199697
0.00743275731201717
0.00809513074700072
0.00868496440400569
0.00922830180585964
0.00972517007495554
0.0101758045173091
0.0105848152613598
0.0109550218652518
0.0112879932080141
0.0115844724018613
0.011845652186345
0.012072723400112
0.0122670250414118
0.0124300153042695
0.0125632761858195
0.0126684864058
0.0127473989242845
0.0128018108418361
0.0128335362167569
0.0128443794105401
0.0128361122490602
0.012810454311034
0.0127690571471683
0.0127134922274925
0.0126452423515166
0.0125656957778657
0.0124761446216555
0.0123777829880344
0.0122717059791522
0.0121589136027021
0.0120403148955288
0.0119167323467968
0.0117889051298449
0.011657496226651
0.011523097160622
0.0113862319569767
0.0112473634591602
0.0111068976355649
0.0109651879756534
0.0108225398280733
0.0106792144260681
0.010535432527491
0.0103913777588568
0.0102471995407537
0.0101030158544949
0.00995891547981824
0.00981496036873921
0.00967118716842136
0.00952760960646186
0.0093842191046857
0.00924098810783156
0.00909786901889138
0.00895480110341449
0.00881169848166964
0.0086685183046525
0.00852506494459709
0.00838077065169351
0.00823515468282185
0.00808840298092631
0.00794078235544833
0.00779267210033926
0.00764432191526981
0.00749652043192497
0.00734909992923856
0.007207769894418
0.00706103628701004
0.00692306804778225
0.0068792592950846
0.00698544398568848
0.00725798086999471
0.0076912889939364
0.00827481003092559
0.00899404601754552
0.00983656141240131
0.0107879023483866
0.0118334796429705
0.0129594516873295
0.0141716773295738
0.0154831603507509
0.0169099698616172
0.0184777160280974
0.0202199424915474
0.0221537388926348
0.0242302760549513
0.0263972380631282
0.0285886063796331
0.0306713756510539
0.0325641304856359
0.0344620654331599
0.0370235231728199
0.0400796830465392
0.0433301267469705
0.0451003413455532
0.0407069841233714
0.0396432528355336
0.0388875234395205
0.0436670853364793
0.0566919132678292
0.0491250809289415
0.0227103454833172
0.00905908773084738
0.00581907782943182
0.00464375372191181
0.00393917166232777
0.00350035595993261
0.00326277321454246
0.00318008935282044
0.003206840399386
0.00329743097532595
0.00341614198409904
0.00354660532858543
0.00368755212785183
0.00384495650633728
0.00403097138068419
0.00426018505268232
0.00454669213368822
0.00490464476208114
0.00534885576571509
0.0058879228783213
0.00651164621687293
0.00717338020011637
0.00778932751432585
0.0083412074348027
0.00885216616286143
0.00932065071274115
0.00974669548105174
0.0101340277764667
0.0104846582959308
0.0107998692196251
0.0110803836077301
0.0113272819198242
0.0115416723963088
0.0117248147308949
0.0118780908233485
0.0120030074120619
0.0121011685284111
0.0121742526376649
0.0122239827593051
0.0122520994838613
0.0122603347437518
0.0122503893663941
0.012223913805024
0.0121824927303299
0.0121276333564143
0.0120607571613848
0.0119831945079091
0.0118961833191223
0.0118008652764903
0.0116982878255306
0.0115894071656355
0.0114750921516438
0.0113561285941852
0.011233222741416
0.011107007883052
0.010978049135113
0.0108468475777671
0.0107138461304358
0.0105794339087562
0.0104439505756656
0.0103076905791051
0.0101709071195211
0.0100338157754821
0.00989659785991348
0.00975940342095501
0.00962235410050087
0.0094855455839383
0.00934905017174055
0.00921291874744777
0.00907718348766625
0.00894185935821645
0.00880694787989176
0.0086724378708863
0.00853831261326344
0.00840454401081828
0.00827114299482021
0.00813804185443527
0.0080049373800324
0.00787154890003491
0.00773810980590427
0.00760505404147697
0.00747304431113839
0.00734279296937915
0.00721564149983934
0.00709229179910512
0.00698019312173775
0.00686652225360338
0.00675154677685795
0.00670775528958195
0.00678997471263116
0.00701913417265715
0.00739436369648084
0.00790676131166209
0.00854230794354361
0.00928890733842829
0.0101334855039202
0.0110627218157644
0.0120645619601656
0.0131450620606152
0.014317023469327
0.0155944509304076
0.0169985402075927
0.0185568796775797
0.0202808609803522
0.0221246036630801
0.0240440484861547
0.0259884273541456
0.0278478434202648
0.0295430933969816
0.0312197526911521
0.0334234129347021
0.0361126916960253
0.0390447864155608
0.0407096848159683
0.0371304662602853
0.036296778544808
0.0358291250879461
0.0394514285263944
0.0533686970256056
0.0514680280548742
0.0275640308138531
0.0104648912356064
0.00607225709675885
0.00469241641229929
0.00395251247257686
0.00350262079532156
0.00325613740568578
0.00316138716250402
0.00317190958671125
0.00324435754519797
0.00334585179338107
0.00346190137387487
0.0035919227673894
0.00374193990209036
0.00392331841354429
0.00414932198944591
0.00443246676674206
0.00478485522413203
0.00521824562651412
0.005737612161885
0.00633041362152119
0.00695296385045395
0.00753254623812518
0.00805565195911018
0.00854190902634805
0.00898879045626676
0.00939608801426669
0.00976678320188158
0.0101023281003653
0.010403802971335
0.0106719003307273
0.0109076134415125
0.0111119882004137
0.011286226523132
0.011431656887311
0.0115497347441532
0.0116420142901182
0.0117101248534453
0.011755740850877
0.0117805546396359
0.0117862503780706
0.0117744816941928
0.0117468526302448
0.0117049024336095
0.0116500941415427
0.0115838065354915
0.0115073297060229
0.011421861877017
0.0113285071209835
0.0112282780447351
0.0111220983547659
0.0110108067283166
0.0108951610924656
0.0107758423850221
0.010653460803598
0.0105285606688258
0.0104016247594837
0.0102730799025603
0.0101433013984976
0.0100126173780506
0.00988131300010692
0.00974963440265269
0.00961779234259683
0.00948596558535069
0.00935430398635183
0.00922293144287052
0.00909194852846363
0.0089614352410498
0.00883145333623628
0.00870204931857897
0.00857325664218434
0.00844509986170932
0.00831759679024341
0.00819076597101935
0.00806462544272897
0.00793923154327554
0.00781460998030184
0.00769064835865506
0.00756724160877422
0.00744468705151988
0.00732354561187837
0.00720468696565932
0.00708916607166847
0.00697871589542764
0.00687471427573337
0.00678546944089232
0.00669830943072669
0.00660493656206104
0.00656564382067426
0.00663215562896083
0.00682816776677378
0.00715673996374258
0.00761093262237352
0.0081776907710283
0.00884538972606359
0.00960202363186848
0.0104353156303649
0.0113346632462005
0.0123060780673435
0.013362103079771
0.0145154597123475
0.0157843379841522
0.0171919999945446
0.0187461438943662
0.0204049241006949
0.0221311171476859
0.0238838805126728
0.0255676710520777
0.0271012493547472
0.0285898641803883
0.0304892321004514
0.0328424394510857
0.0354732925986576
0.0370411584119208
0.0340862232532527
0.0334334946497788
0.0332033229587947
0.0358777571405671
0.0496573899500057
0.0524488852763367
0.0324922334347557
0.0124877916580584
0.00651294990316933
0.00481274147916988
0.00400750687986437
0.00353454875212545
0.00327267646299894
0.00316250688106541
0.00315565838446586
0.00321021977085911
0.00329544406903206
0.0033981330667949
0.00351808398694354
0.00366116710385955
0.00383792178908636
0.00406040939067953
0.00433974318434227
0.00468614037654608
0.00510870925434264
0.00560962868810967
0.00617508186444455
0.00676490014322122
0.0073159761042448
0.00781728631214347
0.00828480593426902
0.00871538579128189
0.00910854497049537
0.0094666310826707
0.0097906933259993
0.0100816574690254
0.0103401798787387
0.0105671850798108
0.0107636723561812
0.010930803115268
0.0110698709583088
0.0111822996205265
0.0112696137804755
0.0113334143587285
0.0113753479705642
0.0113970793102415
0.0114002648244655
0.01138653027528
0.0113574517176326
0.0113145403529077
0.0112592312830152
0.0111928758637729
0.0111167375393863
0.0110319870227388
0.0109397026855388
0.0108408725555024
0.0107363969758618
0.0106270925248669
0.0105136963560897
0.0103968702541934
0.0102772066667304
0.010155233676111
0.0100314195444598
0.00990617814092526
0.00977987345594703
0.00965282400333936
0.00952530702600891
0.00939756246501794
0.009269796637977
0.009142185680291
0.00901487871330692
0.00888800089232333
0.00876165620678783
0.0086359303903179
0.00851089356050248
0.00838660345955237
0.00826310822625213
0.00814045089240078
0.00801867266206631
0.00789782071493273
0.00777795041991523
0.00765915659098887
0.00754153548804495