/*--------------------------------*- C++ -*----------------------------------*\
  =========                 |
  \\      /  F ield         | OpenFOAM: The Open Source CFD Toolbox
   \\    /   O peration     | Website:  https://openfoam.org
    \\  /    A nd           | Version:  7
     \\/     M anipulation  |
\*---------------------------------------------------------------------------*/
FoamFile
{
    version     2.0;
    format      ascii;
    class       volScalarField;
    location    "9000";
    object      nut;
}
// * * * * * * * * * * * * * * * * * * * * * * * * * * * * * * * * * * * * * //

dimensions      [0 2 -1 0 0 0 0];

internalField   nonuniform List<scalar> 
15600
(
1.62571872117446e-07
1.48460651911888e-07
8.63223256776869e-08
3.3696414925719e-08
8.15487631289662e-09
5.31503802700358e-09
5.51164560077234e-09
4.37437152861706e-09
3.71871128841974e-09
3.60155398886259e-09
3.76134536161873e-09
4.14992766654421e-09
4.8320269741137e-09
5.93546195347913e-09
7.68325407503132e-09
1.03257931861053e-08
1.42117406854608e-08
1.9825040731324e-08
2.78750467286528e-08
3.92372240916411e-08
5.48453932373917e-08
7.55234786054613e-08
1.02017855112442e-07
1.34386302944069e-07
1.70971355124462e-07
2.09004370018244e-07
2.44242081900009e-07
2.72253435489406e-07
3.38915194061684e-07
4.32139516477279e-07
5.11774891085556e-07
5.81402405327788e-07
6.45015411669069e-07
7.03412580131092e-07
7.56255412612084e-07
8.03025365464064e-07
8.44580670816147e-07
8.80954005728096e-07
9.12272172279255e-07
9.38686970368358e-07
9.60395418195275e-07
9.77635397925534e-07
9.90682407772266e-07
9.9983833338368e-07
1.00542327603582e-06
1.00776500286008e-06
1.00719127127055e-06
1.00402229703114e-06
9.9856545686869e-07
9.9111094931126e-07
9.81929108156253e-07
9.71268495642594e-07
9.59355216174366e-07
9.46392751183463e-07
9.32562590262408e-07
9.18025034606727e-07
9.02920791144914e-07
8.87371565024445e-07
8.71479862154233e-07
8.55336377703354e-07
8.39015052963653e-07
8.22576962825165e-07
8.06074604850809e-07
7.89547667035478e-07
7.73026358040968e-07
7.565330252809e-07
7.40082525384689e-07
7.23682901547793e-07
7.07335932382873e-07
6.9103750036693e-07
6.74777989881801e-07
6.58542270908346e-07
6.4231000722746e-07
6.26055056621807e-07
6.09745922842742e-07
5.93344033240649e-07
5.76804995140504e-07
5.60074399694412e-07
5.43091623520434e-07
5.2578011686413e-07
5.08065449490697e-07
4.8974553100692e-07
4.70919382914078e-07
4.51633364784404e-07
4.31661800908908e-07
4.10617871762109e-07
3.8826355263053e-07
3.64055140053981e-07
3.37726998934344e-07
3.08474628544689e-07
2.75246462724094e-07
2.33324034433573e-07
2.09606023468369e-07
2.27503339169784e-07
2.4170800569463e-07
2.53066809986833e-07
2.5604417815998e-07
2.52697199681665e-07
2.45508112559298e-07
2.37642554752985e-07
2.28331334023552e-07
2.19047860103995e-07
2.09906372592966e-07
2.00991556046902e-07
1.89203399614432e-07
1.75293692941885e-07
1.60303724322824e-07
1.4506069760436e-07
1.30591014022406e-07
1.18509850737312e-07
1.11812307967395e-07
1.10418433382465e-07
1.15848442816964e-07
1.32918858605799e-07
1.6601517134468e-07
2.10292751060278e-07
2.04630008699524e-07
1.70343117177284e-07
1.40317098745559e-07
1.52805120162136e-07
1.30431349935244e-05
1.19313052469786e-05
6.85879563345642e-06
2.84947984327574e-06
7.53094733704926e-07
4.97046507512194e-07
5.17210148640531e-07
4.12440993411039e-07
3.48799228023814e-07
3.36211209413727e-07
3.4959815737005e-07
3.84049822666044e-07
4.45071772155311e-07
5.43607248248662e-07
6.99217319672615e-07
9.33751032423761e-07
1.27843178014586e-06
1.7742430685066e-06
2.48175139246735e-06
3.47632253575802e-06
4.83509212659327e-06
6.60905352035966e-06
8.84244822602076e-06
1.1527747942863e-05
1.44967832659226e-05
1.74822879644431e-05
2.0031337894476e-05
2.15941516354626e-05
2.61943174218323e-05
3.28671284070414e-05
3.84234653769745e-05
4.31337488099695e-05
4.73598519319358e-05
5.11678317011838e-05
5.45486454832664e-05
5.74727705246303e-05
6.00688187750248e-05
6.23470036092437e-05
6.43220285958158e-05
6.60073652167531e-05
6.74171255136981e-05
6.85661999237165e-05
6.94704688138016e-05
7.01464977297567e-05
7.06113616466803e-05
7.08822895813228e-05
7.09764190107764e-05
7.09105151694982e-05
7.07007718381763e-05
7.03626314301188e-05
6.99106672410622e-05
6.93584868618418e-05
6.87186862583895e-05
6.80028215483712e-05
6.72214172996086e-05
6.63839811996476e-05
6.54990618373722e-05
6.45742507484844e-05
6.36161161569615e-05
6.26306353221424e-05
6.16228873002376e-05
6.05971997687543e-05
5.95574110070613e-05
5.85066192322137e-05
5.74473442365163e-05
5.63816108433576e-05
5.53109618123014e-05
5.42364881799792e-05
5.31588534655653e-05
5.20783079793481e-05
5.09947051316701e-05
4.99074929370846e-05
4.88157240969028e-05
4.77180101258501e-05
4.66125369226464e-05
4.54969447208264e-05
4.4368386511225e-05
4.32232433087586e-05
4.20573291331709e-05
4.08652368170135e-05
3.96415361631933e-05
3.83668810994033e-05
3.70399695144113e-05
3.56687314288472e-05
3.42411492251715e-05
3.27271149822934e-05
3.11075716383913e-05
2.93366345115396e-05
2.73911417614101e-05
2.51998142441279e-05
2.26645622792469e-05
1.94011253548465e-05
1.76899279197279e-05
1.94919786732892e-05
2.07188474789098e-05
2.16673226908469e-05
2.19274510694129e-05
2.16796066609163e-05
2.11225295157725e-05
2.04910670907671e-05
1.97075390637311e-05
1.89064831211134e-05
1.80986331455311e-05
1.72863377218848e-05
1.62252853101781e-05
1.50190601032246e-05
1.37440912620529e-05
1.24571748117184e-05
1.12430618714999e-05
1.02398568459236e-05
9.67179658288703e-06
9.48393963846924e-06
9.81298035213402e-06
1.09756853620172e-05
1.31029656122802e-05
1.55274049955751e-05
1.41604646794829e-05
1.18053254763948e-05
1.02542839772224e-05
1.19219700494508e-05
9.64453467546902e-05
9.36353841826501e-05
6.93180503674804e-05
3.67317299271565e-05
1.16442325375602e-05
7.04262390295307e-06
7.46643796702911e-06
6.04897772528425e-06
5.12064183891266e-06
4.91555947433098e-06
5.09066078253326e-06
5.56377649330493e-06
6.39871637154313e-06
7.74507370427095e-06
9.85466789975124e-06
1.29813250238409e-05
1.74440029932905e-05
2.36331462102958e-05
3.20263042841001e-05
4.30351698364669e-05
5.68514159030212e-05
7.33558993815906e-05
9.21517745525254e-05
0.000112319617746538
0.000132334704670501
0.000150730261937595
0.00016671625342974
0.000183123756719804
0.000212155881617099
0.000244689915878644
0.00027011802627218
0.000291214937239543
0.000310055994222714
0.000327345620316023
0.000343332776892955
0.000357287925929234
0.000369657475851119
0.000380531612252379
0.000390004072297126
0.000398153583949676
0.000405054988248676
0.000410781264078129
0.000415405793936485
0.000419002055816183
0.000421643650670554
0.000423403456169744
0.000424353079143904
0.000424562087861677
0.000424097472716696
0.000423023128139004
0.000421399518429216
0.000419283387882908
0.000416727629088197
0.00041378119946405
0.000410489152953632
0.000406892695869472
0.000403029357810953
0.00039893300823643
0.000394633547493008
0.000390158458179787
0.000385531913487712
0.000380774913531379
0.000375906338574775
0.000370942159965219
0.000365895907211449
0.000360778950760251
0.000355600545909355
0.00035036792243163
0.000345086349319004
0.000339759159650679
0.000334387775099129
0.000328971632871905
0.000323508165810166
0.000317992564606942
0.000312417739279741
0.000306773756895646
0.000301047892694316
0.000295223361273969
0.000289279788071248
0.000283190373489974
0.000276926181207777
0.00027040884518034
0.000263822501489563
0.000257138153687075
0.000250178598687743
0.000242792701761647
0.000234847166035554
0.000226128268999093
0.000216402616244309
0.000205383279070345
0.000192076945318509
0.000174303225091895
0.000162243146711103
0.000168419919854595
0.000177071422631869
0.000183751643399035
0.000185984265282641
0.000184852651674772
0.000181635528795409
0.000177673758297807
0.000172498009212202
0.000166867253866213
0.000160916627638696
0.000154626747317817
0.000146465645441792
0.000137130186264067
0.000127204868179741
0.000117084545703067
0.000107342039148481
9.90458457038616e-05
9.38647937861451e-05
9.12945124040953e-05
9.2220000954662e-05
9.84886756431277e-05
0.000110181609967614
0.000121011414304715
0.000113312031941168
9.73437914339002e-05
8.60330164683521e-05
8.95581372176353e-05
0.000245211676639247
0.000249274184633535
0.000201939404719188
0.000122891717048657
5.70612462953779e-05
3.90577444283776e-05
4.24424563686015e-05
3.57307165102235e-05
3.06897497747627e-05
2.93924941720223e-05
3.01570974395086e-05
3.23816952365782e-05
3.63078293042265e-05
4.25032562168114e-05
5.19083025514764e-05
6.52337720727683e-05
8.31963444617413e-05
0.000106429160678277
0.000135629610480809
0.000170989374063046
0.000211911002219553
0.000257191979984976
0.000305357190202303
0.000353836478654846
0.000399139739257353
0.000438981851474554
0.000475058787314324
0.000517857651646585
0.000586725403395818
0.000657615168710953
0.000712351839373771
0.000758163136972059
0.000798909058717557
0.000836489456127722
0.000870225599526136
0.000899717556619506
0.000925735124644496
0.000948522897960169
0.000968312968766715
0.00098529733189843
0.000999653440225414
0.00101154939608023
0.00102114967668829
0.00102861537440621
0.00103410485805016
0.00103777266036214
0.00103976878655523
0.00104023757618143
0.00103931691626626
0.0010371374798967
0.00103382226722773
0.00102948621847137
0.00102423609205042
0.00101817043160809
0.00101137972084424
0.00100394658895406
0.000995946174477939
0.000987446153720762
0.000978506512110822
0.000969182151854941
0.000959521514069826
0.00094956676967175
0.000939355602179379
0.00092892014451671
0.000918287688800131
0.00090748118587952
0.000896519368960299
0.000885416914476199
0.000874184551814869
0.000862829093064242
0.000851353443704285
0.000839756435806452
0.000828032719423914
0.000816172272751444
0.000804160191413565
0.000791975582281207
0.00077959138150588
0.000766971946418575
0.000754073361629593
0.000740838138971782
0.000727202112868667
0.000713022555632206
0.000698465191871255
0.000683820376473513
0.000668600962912842
0.000652450352634401
0.000635057582429697
0.000615970386846322
0.00059464433447737
0.000570374560471048
0.00054137308999091
0.00050225873150397
0.000473942168555389
0.000485833961436351
0.000509202308865707
0.000528647300425973
0.000537785819762608
0.000538649022285864
0.000534332915048127
0.00052776929980272
0.000517763293075423
0.000505745459460058
0.00049214717921701
0.000476827864677795
0.00045610466672244
0.000431660377352585
0.00040534125787822
0.000378337631360311
0.000352145523018585
0.000329817610933913
0.000316110516354464
0.000309500933155373
0.000312034014056303
0.00032880106997447
0.00036018232565054
0.000388628793698295
0.00036111334687341
0.000299616096213281
0.000242365815553112
0.00023157444746191
0.000451363514378573
0.000462216244086718
0.000386113445653039
0.000237480402223388
0.000133898294675877
0.000113541387655329
0.000130967795028068
0.000116993290299624
0.000103214252404868
9.897158817932e-05
0.000100358196028191
0.000105275045928624
0.000114182294077161
0.000128242536982523
0.000149489670164777
0.00017904588360611
0.000217650621568961
0.000265499233972834
0.00032298398925012
0.00038943823887799
0.00046289330389648
0.000540870257156224
0.000621071151203597
0.000699391686811837
0.000770587001164619
0.000832614020956097
0.000891276533450983
0.000964875637850887
0.00108109244344146
0.00119910971058123
0.00129010801630155
0.00136636509263475
0.00143389748162346
0.00149490468050007
0.00154896794639732
0.00159630317505531
0.00163796148944451
0.0016743774623767
0.00170594595469795
0.0017329936561204
0.00175582029668051
0.001774707276428
0.00178992721515035
0.00180174491529474
0.00181041869322783
0.0018161990483632
0.00181932779809299
0.00182003657272818
0.00181854575753267
0.00181506349180226
0.0018097850852422
0.00180289255543736
0.00179455453450517
0.00178492632707728
0.00177415022268973
0.00176235591631947
0.00174966102430525
0.00173617112794963
0.00172198016405032
0.00170717342045337
0.0016918261486009
0.00167600383537644
0.00165976450581057
0.00164315768388832
0.00162622528401203
0.00160900231685574
0.00159151713676475
0.0015737916855296
0.00155584165281715
0.00153767651274365
0.0015192995057447
0.00150070737088333
0.00148189010223549
0.00146283019555182
0.00144350215997485
0.00142387087332561
0.00140389093244786
0.00138350319573587
0.00136263439089322
0.00134118966827142
0.00131906028260981
0.00129604085693577
0.00127219107337444
0.0012478625002041
0.00122257102227174
0.00119568592313349
0.00116664483556617
0.0011346777016314
0.00109883786567367
0.00105779263371559
0.00100897319226354
0.000942997646249593
0.000894381476171539
0.000913319015712223
0.000956029048965347
0.000995111316963665
0.00101819289475617
0.00102709755683109
0.00102688493368116
0.00102224018266389
0.00101119529423875
0.000995477471105087
0.000975881681300622
0.000952036379663224
0.000917849574470181
0.000875934113167785
0.000830053078324232
0.000782746029611839
0.000736811836965808
0.000698085419099948
0.000675688341314383
0.000667188353369521
0.000675575404959162
0.000709743189750432
0.00077071086464191
0.000826714312733556
0.000773497979659798
0.000641817917280024
0.000497314165838559
0.000443939689804323
0.000724374289720922
0.000732135630238826
0.000624038054281513
0.000377792679611397
0.000226731926128977
0.00021214748334384
0.000268190879693368
0.000258298815134646
0.000235014039345956
0.000226459620065505
0.000227721914861762
0.00023454312807072
0.000247732769189471
0.000269444853804184
0.000303368429842328
0.000351016304663306
0.000412624513184122
0.000487377291126852
0.000575065386771473
0.000673912730907189
0.000780472945233452
0.000891168603286601
0.00100312909719603
0.00111086226215362
0.00120784456647987
0.00129321739534785
0.00137754471659972
0.0014871056013697
0.00165616905987271
0.0018263090461165
0.00195801237087102
0.00206859038979131
0.00216603647867604
0.00225281083879922
0.00232931905249342
0.00239641192637516
0.00245540305570725
0.00250693824203089
0.00255158854432348
0.00258982866490081
0.00262209324127308
0.00264878907615631
0.00267030850696286
0.00268703118724789
0.00269932603697473
0.00270754971393827
0.00271204552507348
0.00271314154591984
0.00271114925818186
0.0027063622988017
0.00269905573718731
0.00268948554076305
0.00267788850863652
0.00266448243781833
0.00264946660013455
0.00263302250200392
0.00261531409675887
0.00259648868076844
0.00257667742847159
0.00255599870588508
0.00253455691338021
0.00251244289851074
0.00248973660762732
0.0024665062607015
0.00244280939748772
0.00241869377551664
0.00239419776875841
0.00236935070424347
0.0023441730770888
0.00231867659593867
0.0022928641252539
0.0022667293136565
0.00224025618220998
0.00221341810451665
0.00218617696458129
0.0021584809902339
0.00213026346316315
0.00210143830816907
0.00207189860211823
0.00204150732288693
0.00201010402854041
0.00197742035446827
0.00194338349223627
0.00190824183356303
0.00187157575637546
0.00183252630145211
0.0017902439237182
0.00174359465444292
0.00169116096161465
0.00163089279561357
0.00155934651132464
0.00146291028568748
0.00138984059610376
0.00141311020487185
0.0014765576285027
0.00153995277335542
0.00158331447990137
0.00160659122402015
0.00161633470668476
0.0016189077780908
0.00161168948189853
0.00159629679038945
0.00157380601929286
0.00154348839036442
0.00149689417787843
0.00143735354884279
0.00137095674730612
0.00130212780102282
0.00123535815389534
0.00117980392755208
0.00114964567129552
0.00114205185030558
0.00116055916325978
0.00121732114615777
0.00131380296828334
0.00140289170626114
0.00132452949427834
0.00111273423084282
0.000861444079596092
0.000741027395779549
0.00106836474085721
0.00106103180309218
0.00091956006224592
0.000552745182464716
0.000332348302496808
0.000312356363004842
0.000423222210254705
0.00044552225593514
0.000418940965321379
0.000406585417800932
0.000407159833502636
0.000414476416510759
0.000430018031382047
0.000457587197529947
0.000503161874257324
0.000568702519851481
0.000653526258321978
0.000755487758717287
0.000873583271725935
0.00100477573390829
0.00114413135584503
0.00128715342481262
0.00143050400299983
0.0015674985900046
0.00169094757291438
0.00180190764167998
0.00191592763866155
0.00206687955950878
0.00229256280999982
0.00251735476804057
0.00269263906036867
0.0028402529373845
0.00296985357612279
0.00308435990855184
0.0031851570885324
0.00327368497873789
0.00335151637405903
0.00341952259406133
0.00347846006583445
0.00352896130125263
0.00357160504805361
0.00360693236389346
0.00363546368464574
0.00365770154271224
0.00367413309934924
0.00368522846613638
0.00369143937317968
0.00369319692687704
0.00369090993075338
0.00368496338439871
0.00367571761455124
0.00366350767250884
0.0036486432901099
0.00363140916164262
0.00361206564901637
0.00359084965232173
0.00356797475360462
0.0035436330901931
0.00351799581732857
0.00349121672041965
0.00346343142546684
0.00343475800140689
0.00340529984276154
0.0033751451691956
0.00334436821799347
0.00331303031987205
0.00328118046285659
0.00324885572887842
0.00321608156538286
0.00318287184045556
0.00314922873771437
0.00311514227830451
0.00308058971871836
0.00304553426242406
0.00300992381348308
0.00297368830044908
0.00293673763362331
0.00289895640804487
0.00286020105380617
0.00282028903813903
0.00277900320036665
0.00273601046012099
0.00269110205872708
0.00264435038576908
0.00259536688260806
0.00254310689859451
0.00248643278125645
0.00242382983110583
0.00235337342432647
0.0022722732723694
0.00217616138186937
0.00204734514644036
0.00194632393802666
0.00196901983851308
0.00205185423267058
0.00214185916379947
0.00221029075678848
0.00225355292462851
0.00227880629966097
0.00229377258073793
0.00229528951555663
0.00228452651260642
0.00226265545038822
0.00222843403093924
0.00217120683310692
0.0020948031960114
0.00200784004404132
0.00191706022006474
0.00182903407526804
0.00175664137356251
0.00171946826549249
0.00171485143237779
0.00174656958378771
0.0018291892159828
0.00196411153004269
0.00208842200933418
0.00198760234908729
0.00169164549108341
0.00132625474607144
0.00112414074726379
0.00148219838222333
0.00144931845037315
0.00127235865264297
0.000773708888087378
0.000445595889931886
0.000407805986532888
0.000567343808885208
0.000656941335835571
0.000641447801979252
0.000628159186337171
0.000628400000594445
0.000635343234093439
0.000651560662915068
0.000683203669376466
0.000739121433303333
0.00082186069790051
0.000929565228497956
0.00105857436066014
0.00120690829441881
0.00137015982682344
0.00154195461748217
0.00171703734949201
0.00189167926193753
0.00205828126761208
0.00220958627002315
0.00234903469753602
0.00249702064625748
0.00269403036427883
0.0029785991375852
0.0032592252346737
0.00348001893687536
0.00366663323799996
0.00383006037833535
0.0039739279093742
0.00410056929514401
0.00421196088899273
0.00430993722996321
0.00439560440384152
0.00446991053097017
0.0045336530602573
0.00458756135321305
0.00463231689030086
0.00466857387311534
0.00469696302661178
0.00471809470886161
0.00473255716286196
0.00474091495892082
0.00474370643085804
0.00474144169270201
0.00473460090169098
0.00472363324741714
0.0047089562888023
0.00469095592814979
0.00466998680916871
0.00464637338824266
0.00462041027432413
0.00459236338515036
0.00456247198891741
0.00453094935515044
0.00449798657013271
0.00446375219299466
0.00442839308393372
0.00439203743702228
0.00435479466173275
0.00431675672094232
0.00427799937027296
0.00423858289053142
0.00419855262763265
0.00415793932059842
0.00411675916548935
0.00407501365680247
0.00403268900058604
0.0039897553073287
0.0039461650334024
0.00390185129974244
0.00385672471415086
0.00381067050942218
0.00376354240275941
0.0037151582357089
0.00366528780365601
0.00361365396987928
0.00355985688998705
0.00350355592822191
0.00344463061017249
0.00338264124306811
0.0033164082825214
0.00324451265406914
0.00316505881778633
0.00307560252872051
0.00297262042169204
0.00285080007789427
0.00268873357950425
0.00255722830639729
0.00257409827911282
0.00267322207181643
0.00279014058387613
0.00288680525805835
0.00295466148506684
0.00300040010394763
0.00303257921706863
0.0030475200656919
0.00304566791733428
0.00302804634764958
0.00299271886670796
0.00292700340888782
0.00283504499310739
0.00272803844567169
0.00261536020436476
0.0025060114890405
0.00241690826314243
0.00237317823789103
0.00237282511712971
0.00241966759074751
0.00252984548935193
0.00270409575300198
0.00286368745243918
0.00274340611166616
0.00236287800449324
0.00188009698081765
0.00158772764767116
0.0019627936245184
0.00189619285590991
0.00167972498330873
0.0010517047591777
0.000572559431346079
0.00049843842950282
0.000685268741242837
0.000870447821299219
0.00088922786477383
0.000880943794722403
0.000882480031593972
0.000889164173663161
0.000905154271073721
0.000939579102714166
0.00100467309895573
0.00110381115942015
0.00123387526748351
0.00138959081474421
0.00156784594380501
0.0017628058560196
0.00196674120390142
0.00217377655889342
0.00237987963680911
0.00257685396536107
0.00275787159923556
0.00292896989107758
0.00311496098095818
0.00336166610061858
0.00370619126681748
0.00404296126235841
0.00431048742854933
0.00453744571407736
0.00473596081217434
0.00491048160675652
0.0050642217049108
0.00519964739546766
0.00531885829463263
0.00542320049116652
0.00551381776180197
0.0055916772463005
0.00565766301516083
0.00571260069533316
0.00575728143044662
0.00579246693707454
0.0058188932237579
0.00583726888461066
0.00584827336941382
0.00585255416436858
0.00585072454175159
0.00584336161617342
0.00583100520793928
0.00581415713250709
0.00579328118984894
0.0057688037594287
0.0057411149391354
0.00571056859803867
0.00567748470684327
0.00564215117899709
0.00560482487614178
0.00556573554647941
0.0055250859612655
0.00548305299244842
0.00543979073974258
0.00539543081376984
0.00535008382000015
0.00530384074689725
0.00525677386185291
0.00520893735345335
0.00516036771317643
0.00511108380529307
0.00506108664943452
0.00501035872185091
0.00495886293453456
0.00490654080501507
0.00485331032405874
0.0047990622818365
0.00474365655470737
0.00468691514802114
0.00462861625312986
0.00456848081453308
0.0045061699314261
0.00444121528391524
0.00437315074975112
0.00430166180367438
0.00422619956114651
0.00414546649173258
0.00405777865553472
0.00396087051821344
0.00385178231153888
0.00372628025183371
0.00357810439385904
0.00338260767934462
0.00321900506620208
0.00322523428708062
0.0033366331865671
0.00347924225340523
0.00360580473788001
0.00370177492764792
0.00377226753273683
0.0038260142457574
0.00385873625876799
0.00386991338619874
0.00386014733694217
0.00382661345545612
0.00375478240710869
0.00364897027891785
0.00352290035560528
0.00338878460315823
0.00325835120180123
0.003152783823743
0.00310273130771679
0.00310725415498454
0.00317007253263416
0.00330817578852111
0.00352112685069553
0.00371482902608227
0.00357805434248567
0.00311502082220799
0.00251395428880828
0.00212568687892507
0.00250702024579115
0.00240042061314796
0.00213863558846527
0.00139459201990852
0.000720249679021963
0.000589829879283554
0.000775869612289554
0.00106590214507496
0.00114948426694866
0.00115634047839761
0.00116240080099977
0.00117008045084211
0.00118583940951507
0.00122231960601005
0.00129561015954765
0.00141028145325887
0.00156203509492076
0.00174396321807506
0.00195170407630473
0.00217798198064782
0.00241381547642868
0.00265282532969677
0.00289077609176017
0.00311918574748274
0.00333201865770219
0.00353790628219113
0.00376546133693997
0.00406448372417583
0.00446908308186599
0.00486164219978947
0.00517652366795114
0.00544464721869322
0.00567911991066814
0.0058852443932214
0.00606703208883941
0.00622739981192486
0.00636871400804948
0.00649256265261819
0.00660028697605672
0.00669302632659168
0.00677182132320096
0.0068376431549314
0.00689142073070787
0.00693404717609093
0.00696638422969853
0.00698926071824336
0.00700347074163488
0.00700977068870444
0.00700887677989895
0.00700146296053294
0.006988159666286
0.00696955308375216
0.00694618515320847
0.00691855453660539
0.00688711703117205
0.00685228659930223
0.00681443794066146
0.00677390834390258
0.00673099905929601
0.00668597930156424
0.00663908686873542
0.00659052947958937
0.00654048795590168
0.00648911689997605
0.00643654632233279
0.00638288316288424
0.00632821233851106
0.00627259748216078
0.00621608137280971
0.00615868600641076
0.00610041231438178
0.00604123934949333
0.00598112304640147
0.00591999411887931
0.00585775547144465
0.00579427803430771
0.00572939619191769
0.00566290002770162
0.00559452778339087
0.00552395123015268
0.00545076915858519
0.00537444376481335
0.00529439040431917
0.00521010641402988
0.00512089781820133
0.00502534750609179
0.00492152495948843
0.00480681225681666
0.00467775013735181
0.00452942648717331
0.00435464341199007
0.00412603518418501
0.00392951460858809
0.00392100383964222
0.00404031629696472
0.00420629648672204
0.00436311758134255
0.00448963472766275
0.00458837254857064
0.0046675007497117
0.00472195503158673
0.00475002275208468
0.00475159724758143
0.00472276902777308
0.0046473308872753
0.00452965862382252
0.00438588540768719
0.00423116011458031
0.00408016420633482
0.00395849513393923
0.00390216477335104
0.00391156085721381
0.00399021051946967
0.00415541150206133
0.00440527673529312
0.00463129439972041
0.0044807989336068
0.00393920975048735
0.00322109559360071
0.00273311179720219
0.00311226238520409
0.00296074571419589
0.00264683677833103
0.00180674262818454
0.000896720839506545
0.000686248275018264
0.000848274410118894
0.00122795337484416
0.00140899616343696
0.00144648979976276
0.00146234840499204
0.00147354276611424
0.00149003156620777
0.00152843923796336
0.00160915178407912
0.00173843405190331
0.00191106026413388
0.00211855451919818
0.0023552326949524
0.00261239869546477
0.00287992578145831
0.00315102686703041
0.00342136682521213
0.00368245332865343
0.00392927121406891
0.00417287583550881
0.00444495864867389
0.0047979885926699
0.00526199702271794
0.00570942801410878
0.00607173941671598
0.00638137291815125
0.00665228661554929
0.00689062017274138
0.00710109698456957
0.00728705050376465
0.00745111309049111
0.00759511354069825
0.00772059022616997
0.00782885503825045
0.00792110480400173
0.00799845546073346
0.00806197224404878
0.00811267782125231
0.00815155746686117
0.00817955788292248
0.0081975854164767
0.00820650302238405
0.00820712767978082
0.00820022817936472
0.0081865238299418
0.00816668371417979
0.00814132679859212
0.00811102297647436
0.00807629290455609
0.00803761036175247
0.00799540451400666
0.00795006195789876
0.00790192843302552
0.00785131284541025
0.00779848834575617
0.00774369392430074
0.00768713761985406
0.00762899756534913
0.00756942375233656
0.00750853966773178
0.00744644347567606
0.00738320884348757
0.00731888541158655
0.0072534988584486
0.00718705054940437
0.00711951660311204
0.00705084643154123
0.00698096036458752
0.00690974660882971
0.0068370565972048
0.00676269957136998
0.00668643404411052
0.00660795868850097
0.00652689655291977
0.00644278465115779
0.00635501558340764
0.00626289319474282
0.00616573650189915
0.00606268621249966
0.00595219734316456
0.00583210940028532
0.00569947348255552
0.00555035544782881
0.00537920338265526
0.00517790276060293
0.00491689211962538
0.00468730019382617
0.0046607375271306
0.00478362364414518
0.00496992505533604
0.00515627665304491
0.00531473785149778
0.00544440028824043
0.00555212601576606
0.00563179821444352
0.00568028612019932
0.00569648567423278
0.00567521194871926
0.00559873578869739
0.00547140707151575
0.00531160165067139
0.00513741811036517
0.00496663820144223
0.00482932451355733
0.00476655863704289
0.00478021119046417
0.0048735757462264
0.00506396817233601
0.00534812065207235
0.00560452798349768
0.0054430951081524
0.0048282135676779
0.00399617962399807
0.00340621536469011
0.00377641866668368
0.003576012896975
0.00320314515924349
0.0022885536399134
0.00111169912169952
0.000792065624304098
0.000913037405278406
0.00134866369009686
0.00165367979163574
0.00174335365617641
0.00177693560236741
0.00179559563898215
0.00181482646710943
0.00185570245717857
0.00194332537841991
0.00208627588067897
0.00227882564217104
0.00251109253900895
0.00277605001462507
0.00306362878240921
0.00336266071536116
0.00366602778230561
0.00396938967422101
0.00426446431277543
0.00454736310145309
0.00483127446949381
0.00515020677843558
0.0055580939447716
0.00608018185514785
0.00658106043076463
0.00699035768460662
0.00734139230046197
0.00764884559943814
0.00791964680130087
0.00815914688289039
0.00837106554109339
0.00855829699600359
0.00872290706720879
0.00886662882039847
0.00899094484028245
0.00909720566871501
0.0091866689917226
0.00926053273553491
0.00931994503589849
0.00936601032322124
0.00939978867131831
0.00942229418985113
0.009434492064644
0.00943729594622339
0.00943156569955133
0.00941810610030634
0.00939766611356795
0.00937093932899143
0.00933856416033705
0.00930112454276423
0.00925915260793224
0.00921313081601106
0.00916349420392367
0.00911063239915846
0.00905489362915968
0.00899658621750712
0.00893598042188155
0.00887331164760273
0.00880878182141292
0.00874256128003055
0.00867479050280812
0.00860558140603738
0.00853501824155666
0.00846315809546508
0.00839003093797426
0.00831563919627155
0.00823995669707919
0.00816292698619251
0.00808446068158072
0.00800443198884531
0.00792267357381572
0.00783897032510976
0.00775305005124789
0.00766457285820114
0.00757311423584762
0.00747815090462069
0.00737900674387881
0.00727488107694482
0.00716492652905738
0.00704810958819169
0.00692274842644854
0.006786467046609
0.00663600890758171
0.00646699567231128
0.00627327886201586
0.00604586042223599
0.00575348288336701
0.00549122754459665
0.00544407537325896
0.00556644902410845
0.00576958966130087
0.00598386946378209
0.00617471845417048
0.00633716760193372
0.00647606881543431
0.00658393087699195
0.00665597501599737
0.00668981553540138
0.00667881445219522
0.00660386277636554
0.00646921744424934
0.00629529447491449
0.00610307642714823
0.00591350552246695
0.0057610543688574
0.00569144003817852
0.0057080752421425
0.00581407257266313
0.00602680435178451
0.00634211598728604
0.0066273078059981
0.00645795126486911
0.00577593146488621
0.00483469244344044
0.00414194914622802
0.00449774975620902
0.00424516180314708
0.00380731342252004