/*--------------------------------*- C++ -*----------------------------------*\
  =========                 |
  \\      /  F ield         | OpenFOAM: The Open Source CFD Toolbox
   \\    /   O peration     | Website:  https://openfoam.org
    \\  /    A nd           | Version:  7
     \\/     M anipulation  |
\*---------------------------------------------------------------------------*/
FoamFile
{
    version     2.0;
    format      ascii;
    class       volScalarField;
    location    "9000";
    object      omega;
}
// * * * * * * * * * * * * * * * * * * * * * * * * * * * * * * * * * * * * * //

dimensions      [0 0 -1 0 0 0 0];

internalField   nonuniform List<scalar> 
15600
(
1974.60613735576
1972.648325243
1984.42791022013
2055.78059759582
2222.67690004102
2356.686868098
2378.42128442444
2300.00018532342
2153.97031116953
1966.45861756929
1762.78479607635
1583.64547894744
1435.67966376577
1312.2349065017
1208.29531934702
1120.03744959636
1041.43040276847
963.351277377799
885.918292649371
810.58135114486
738.629427726828
671.777660481123
614.580438156229
568.667823075621
533.493089366932
508.868650769501
494.93483283514
492.061840314983
493.651539705996
493.651534338166
493.651534338173
493.651534338186
493.651534338214
493.651534338152
493.651534338164
493.651534338193
493.651534338173
493.651534338179
493.651534338187
493.651534338166
493.651534338199
493.651534338138
493.651534338171
493.651534338152
493.651534338165
493.651534338172
493.651534338187
493.651534338193
493.6515343382
493.651534338166
493.651534338172
493.651534338165
493.6515343382
493.651534338165
493.651534338146
493.651534338186
493.65153433818
493.651534338194
493.651534338178
493.651534338193
493.6515343382
493.651534338185
493.651534338193
493.651534338201
493.65153433813
493.651534338152
493.651534338177
493.651534338139
493.651534338172
493.65153433818
493.651534338191
493.651534338182
493.65153433818
493.651534338178
493.651534338194
493.651534338178
493.651534338152
493.651534338152
493.651534338159
493.651534338193
493.651534338166
493.651534338166
493.651534338171
493.651534338213
493.651534338157
493.651534338194
493.65153433817
493.651534338157
493.651534338187
493.651534338165
493.651534338165
493.651539706002
492.061840314982
494.934832835202
508.868650769232
533.493089366357
568.667823075228
614.580438156834
671.777660481449
738.629427726959
810.581351143299
885.918292648864
963.351277377646
1041.43040276902
1120.03744959597
1208.2953193011
1312.23490651725
1435.67966381516
1583.6454790092
1762.78479592733
1966.45861764716
2153.97031128258
2300.00018510395
2378.42128451691
2356.68686814436
2222.67690004416
2055.78059756207
1984.42791022399
1972.64832524326
1974.60613735531
419.822663677131
420.35938686802
454.457380307139
460.292659899516
460.344987543558
465.80905245244
468.656286314027
454.197977304231
426.454477230993
389.854766179179
349.960176503351
314.863262112545
285.863639382945
261.927566032963
242.009989325949
225.204001061261
210.027639946387
194.838531039921
179.581421453955
164.442014061892
149.766262795357
136.290790649448
124.795562028462
115.414078938419
108.245184806454
103.431712960833
101.661864019631
105.148115081507
106.234308472457
104.06662370749
102.584929859414
101.65650877428
100.951039520691
100.417768501794
100.035175783206
99.7699224178181
99.5171501462315
99.2782094475706
99.0528844815574
98.8413941710824
98.6440612053519
98.4611880537395
98.2929652678073
98.1394823265133
98.0007092473705
97.8765214424721
97.7667034251155
97.6709679364013
97.5889641676977
97.5202907095099
97.4645021812903
97.42111879536
97.3896311769683
97.3695074683007
97.3601963727271
97.3611340942572
97.3717400477381
97.3914314951756
97.4196338086171
97.4557358427629
97.4991735449789
97.5493674051474
97.6056942976781
97.6675838961746
97.7344708277934
97.8057871352235
97.8809718356414
97.9594703799966
98.0407345478646
98.1242231742615
98.2093998061857
98.2957358268709
98.3827041544817
98.4697889633006
98.5564692540223
98.6422472479965
98.7266035536018
98.8090776190022
98.8891426873726
98.9664189272141
99.0400727269775
99.123239025603
99.2399294667824
99.3786617495786
99.5249591379553
99.688204847679
99.8664051506412
100.084771969497
100.334077973696
100.67308011803
101.1377619655
101.949565072965
100.739174809768
98.2475109184116
100.493145639518
104.998765207804
111.729810508362
120.587574985771
131.639452197198
144.580992800437
158.810610930489
173.885193669301
189.62005348908
205.797250771217
222.671279215352
241.413056454495
263.179538502656
288.840719136252
319.310984795832
355.612439917396
396.492154644207
435.961172326062
468.388284078836
488.024714737925
490.760157968114
479.55014463745
488.196963617659
493.658598653586
478.549329989003
436.848971774371
182.853023235826
175.145716574925
180.267339099711
184.269287797083
169.770335478375
166.245842547618
163.386371812835
159.273316134479
150.558985721255
138.073087739587
124.212955389194
111.848120436495
101.659215025436
93.2391902694754
86.2021062858647
80.2017727109754
74.7259523822384
69.2039150923092
63.6644628270496
58.2614758035242
53.1830299706236
48.645582993452
44.9118459308328
42.0639150772613
40.0946871662283
39.0208885365644
38.8629288325908
39.2305622597783
39.233208625793
39.0402951066263
39.0245453005807
39.0867765978588
39.1283090767287
39.1151180458214
39.0384159358397
38.9930995685229
38.9515353057291
38.9128293394087
38.8757290018115
38.8396773637853
38.8044340522254
38.7699514541735
38.7362691472095
38.7034854840162
38.6717201380514
38.6411066911842
38.6117785012543
38.5838659652431
38.557490828083
38.5327647784808
38.5097865133236
38.4886414874474
38.4694002636799
38.452118789911
38.4368373889714
38.4235817718736
38.41235972174
38.4031678226886
38.3960016657108
38.3908158512771
38.3875676605693
38.3862095446447
38.3866594803918
38.3888426256821
38.3926750713747
38.3980603347903
38.4048937230757
38.4130629733529
38.422448984436
38.4329272327061
38.4443677396689
38.4566381866744
38.4696023709495
38.4831275688061
38.4970785740273
38.511336411107
38.5257788927285
38.5403299581798
38.5549000198801
38.5695154492522
38.5839823263143
38.6018908193364
38.5962342320101
38.5704805981685
38.5367689097492
38.4969613438221
38.4498704801897
38.3954242017192
38.3320427978864
38.247128533066
38.1926673751924
38.1643408737363
37.943275079778
37.6193584055616
37.9636503237135
39.2272565058493
41.3900662875599
44.3230815491487
47.9935114007769
52.2895439905829
57.1192727660052
62.3130074149163
67.818249677089
73.5939005746851
79.8762330216629
86.8730120598511
94.891498521488
104.237175581168
115.164288676711
127.759090175589
141.257704896315
154.398501258794
165.141662177831
170.865617772491
170.771702014119
168.837428425332
174.642664059506
188.247775968019
200.123056150408
196.347531713154
106.511319073472
99.848244282059
103.693021017599
116.211011736295
104.592777403913
83.2287705072234
75.6412610077239
73.8685890482281
70.4967218408603
65.0140257856691
58.8097327356716
53.2904119100456
48.7862786744345
45.1246840734178
42.0539900442017
39.3493280901847
36.773951557561
34.1657987864644
31.5838817140005
29.1331608744844
26.9186393301744
25.0280286501451
23.5375640019763
22.4742341643556
21.8483069386411
21.6655575320033
21.8593738927437
22.1453425394975
22.1744326867563
22.1551694010145
22.224585129467
22.3141039856513
22.3825974884541
22.4053876853591
22.4156594282163
22.4343552015224
22.451225009464
22.4658127954161
22.4775293076855
22.486224241119
22.4919228031587
22.494762857146
22.4949285473932
22.4926340328702
22.4881011729075
22.4815549305036
22.4732153017124
22.4632956329312
22.4519995310531
22.4395200533889
22.426038201456
22.4117228417356
22.3967298982022
22.3812025436476
22.3652707479168
22.3490517728944
22.3326499931708
22.3161590726709
22.2996658677809
22.2832321133877
22.2669152407608
22.2507675018268
22.2348208732547
22.2191056469564
22.2036442969547
22.1884499295513
22.1735285076765
22.1588796769301
22.1444975805984
22.1303721104961
22.1164895268658
22.1028347810098
22.0893917206422
22.0761479361244
22.0630934037478
22.0502317100966
22.0375732613864
22.0251630083806
22.0130562583625
22.0013901914312
21.9902146267125
21.9810566235415
21.9667496422554
21.9372018583179
21.9025242198448
21.8658635063111
21.8276665361387
21.7889119988476
21.750167657651
21.7094759278693
21.6857039499083
21.7060962033951
21.6222769519976
21.3314535960626
21.2633181585501
21.6935523698877
22.6266283697642
23.9674016661675
25.6644200453912
27.6513218011527
29.9073065196979
32.3557839089357
34.9673483719434
37.7295256070172
40.7838727864651
44.187263300629
48.0315429469441
52.4325728733083
57.4742732362634
63.0907166705637
68.7878562493254
74.1752896652947
78.4373563623679
80.3963767575219
79.887028956272
79.2162688227264
83.6537913976901
93.3366750768149
107.503210190916
112.428019183911
70.3188049134326
66.4072638182599
69.7663020298034
86.3301678522301
84.9391903300486
56.1638743408674
43.3500170340966
41.2313851502233
39.4408304003809
36.5408218064185
33.2860682678123
30.4658993996022
28.2256056867979
26.4634828617983
24.9832267327597
23.6268569324184
22.2797593555952
20.9076777506822
19.5544185596574
18.2834234651745
17.1582433079967
16.2262244620969
15.5169553876419
15.0500432245678
14.845852409153
14.906881988426
15.1691638314556
15.4421377611403
15.4628297407505
15.4206813197854
15.4571916650247
15.5135269080765
15.5591903071531
15.586862858369
15.6117918282802
15.6391503222819
15.6640070688518
15.6860208341954
15.7048340087866
15.7203934998542
15.7327597950295
15.742070301388
15.7484927202013
15.7522143690014
15.7534270792442
15.7523239195332
15.7490938776392
15.743920623885
15.7369805242161
15.7284420423888
15.7184647965971
15.7071994899275
15.6947874109076
15.6813605250772
15.6670412029031
15.6519426875612
15.6361697715983
15.619818153533
15.6029775918307
15.585722137114
15.5681213219171
15.5502404400462
15.5321323001697
15.5138469448856
15.4954289892055
15.4769168879828
15.4583442825498
15.4397408020435
15.4211328644359
15.4025447887336
15.3839996427765
15.3655211447941
15.3471345658044
15.3288703693983
15.3107647733519
15.2928675080376
15.2752403990518
15.2579752464769
15.2411848778229
15.2250476649813
15.2097188789211
15.1960758860505
15.1818718745056
15.1616592653095
15.1387387708923
15.1164656177374
15.0963972866262
15.0806538353172
15.0714567717612
15.07216710726
15.094866064708
15.1799752992323
15.1643340189666
14.8827063130949
14.7110525782746
14.8509094004619
15.3246262445091
16.0689656003594
17.0352146874006
18.1744014245777
19.4774280824961
20.9035305271458
22.432360444022
24.058035970289
25.8683109297076
27.8877150370844
30.1448395402331
32.6859815178645
35.5404013421548
38.6313425428453
41.636371536446
44.3814006062545
46.4949837509241
47.405157334357
47.0741758328
46.8058380248045
49.8390704539087
56.0294976303399
66.0806332575414
71.7852341976048
50.1477777509435
48.1894086967666
50.7407528470856
67.0899271707465
73.6045421250212
47.641871451886
30.2781319140984
26.9617852356829
25.5502560682333
23.6945936871985
21.7174081875949
20.0779256020712
18.833035405353
17.8994021222129
17.1157481094195
16.3637797019746
15.5816002776057
14.7709139717137
13.9644936318932
13.2075365034606
12.5464186225491
12.0132071411115
11.624145380684
11.3964569515872
11.3493377399542
11.4801240707817
11.7311808963822
11.9550797811842
11.9534392864796
11.8970003304094
11.9111508266191
11.9449900204537
11.9753104788183
11.9996688330811
12.0238676581789
12.0487510783059
12.0714611917467
12.0916687413323
12.1090959999404
12.123698028817
12.1355168462555
12.1446559237276
12.151244092568
12.155427043382
12.1573556838004
12.1571831527789
12.1550606518763
12.151136190329
12.1455529691238
12.138448739645
12.1299550255093
12.1201969604265
12.1092928748033
12.0973542827264
12.0844856683176
12.0707852255407
12.0563447055575
12.0412487579669
12.0255775149414
12.0094005542159
11.9927835971415
11.9757890528842
11.9584711669983
11.9408816798604
11.9230686182422
11.9050759806453
11.8869446693212
11.8687132351701
11.8504186499216
11.8320973216583
11.8137860271149
11.795523569123
11.7773519806305
11.7593195162715
11.7414820853793
11.7239092176874
11.7066851394845
11.6899216763394
11.6737564684146
11.6583836515618
11.6440070016403
11.6312406439009
11.6194158504189
11.6059386717025
11.5918011118246
11.5796565394018
11.5714024622141
11.5695514350169
11.5770617631061
11.5989753702231
11.645402841011
11.7582655459019
11.7893883222697
11.5578065121503
11.3654769069495
11.3815010952262
11.6389856499327
12.0976468341173
12.7160643806287
13.4550567476339
14.3075924941192
15.2491118967953
16.2646649080253
17.3509074499958
18.5668356685066
19.9276104176517
21.4408930375773
23.1251573786147
24.9892509178731
26.9663825677021
28.8326485645557
30.4872884178073
31.7370552939992
32.2710324074011
32.0831169321379
31.979026805942
34.100899344464
38.3690711132623
45.1944447541919
49.8673850593216
37.8843520949109
37.010827320651
38.8803423850075
53.1549935915577
64.0208156772619
44.98014290207
24.7976057201488
19.9934409374243
18.5635997182912
17.1804150521809
15.8121450154482
14.7322993389701
13.9545271797083
13.4018649920409
12.9383022366314
12.4707273794617
11.9621328994519
11.4250368507534
10.8863949438109
10.3820926954022
9.94856022242598
9.60924469287413
9.37478656345805
9.25962804429107
9.27846188675212
9.42394148229078
9.64349624394245
9.81695047813718
9.79906203598252
9.73998123937977
9.74230831764793
9.76292324966958
9.78398598300269
9.80409696095943
9.82483667701127
9.84569663285346
9.86478907855075
9.88178478985726
9.89644268700477
9.90871043223844
9.91860898697946
9.92621249678383
9.93161873768235
9.93494157214118
9.93630124811414
9.93582140531329
9.93362545614495
9.92983520633687
9.9245693660535
9.9179428187905
9.91006588964307
9.90104409448846
9.89097775551416
9.87996191971918
9.86808626160448
9.85543583676713
9.84209015040922
9.82812333687129
9.81360587641253
9.79860068378225
9.7831674159354
9.76736305410215
9.75123893440495
9.73484429001532
9.71822574204747
9.70142723138505
9.68449073631239
9.6674569649374
9.65036609783857
9.63325873251124
9.61617684057044
9.59916526297075
9.58227304161863
9.56555600950618
9.54907863145107
9.53291891231349
9.51717069831399
9.50195373966783
9.48741552852447
9.47375407847794
9.46119427570823
9.45022139132644
9.4407642363478
9.43168104114924
9.42327039825371
9.41758107237098
9.41650678338899
9.4226072710127
9.43908646246716
9.47135414002181
9.52841985264532
9.64945889053985
9.71008900875637
9.53417521229121
9.3511757731702
9.30976797130674
9.45034419138688
9.74916847452202
10.1725637815141
10.6882545238373
11.2895033336136
11.9600734156947
12.6886053940086
13.4731018456142
14.3557879101694
15.3481405077161
16.4503502802782
17.6686791647129
19.003330984522
20.3984465373584
21.6896219611878
22.8082142647833
23.6425692060157
24.0075466770923
23.9064355391079
23.8792917515605
25.4201360831618
28.5604181493457
33.4375833119352
37.063899355582
29.9053246173728
29.5953384548886
31.0027335431691
42.6639824626104
56.4094723764049
43.9424490216197
22.7590102765777
16.2969204144816
14.6465396813301
13.4883263817626
12.4395355167589
11.6499237430478
11.109637032658
10.7452594426377
10.4395915138488
10.1166352813057
9.75255162903627
9.36296501024116
8.97118756952317
8.6070406099118
8.29992787625785
8.06757442289108
7.91750802405282
7.86125051378198
7.90881203092602
8.04948325076272
8.23539756534018
8.36749658342002
8.34060868240122
8.2844139850036
8.28084778703158
8.29374586743357
8.30922186099792
8.32578049069372
8.34317338309245
8.36047372143991
8.37631429213494
8.39037218934914
8.40243046672539
8.41243089374652
8.42038019339021
8.42633289218341
8.43036629205214
8.43257341971696
8.43305456221678
8.43191419550465
8.42925766514772
8.42518967914174
8.41981286106647
8.41322693757977
8.40552801889369
8.39680828324634
8.38715560938732
8.37665345882739
8.36538101861692
8.35341340674149
8.34082094069871
8.32766963098884
8.31402229170871
8.29993597133171
8.28546486263825
8.2706608618027
8.25557173185119
8.24024344867143
8.22472006163785
8.20904378397417
8.19325559451088
8.1773958881777
8.16150519208548
8.1456250554964
8.12979900508705
8.11407392209869
8.098501417729
8.08314014772983
8.06805783448312
8.05333548605558
8.03907030330601
8.02538396245264
8.01242634920961
8.00039344563144
7.98951714456284
7.98020976481751
7.97264851755572
7.96641684872778
7.96171912998599
7.96012681639638
7.96342855269453
7.97409230748393
7.99533079778805
8.0324410686136
8.09359162096655
8.21387907577738
8.29172415324292
8.16460188070381
8.00207646031839
7.93459277189187
8.00682726520223
8.20718093960843
8.509130042245
8.88587174655998
9.33077264758026
9.83230666259234
10.3816223096426
10.9775570751743
11.6517116418106
12.4136012556485
13.26077166658
14.1938063327306
15.208984219779
16.2595079446065
17.2195629915482
18.037699897025
18.6440913754742
18.9205875607774
18.8728892825031
18.8851001373488
20.0433826467253
22.4491135218052
26.1209439421896
28.9746353610398
24.4061708393499
24.3860054529582
25.5064783433055
34.6353626863591
49.7673430230897
43.2682270387015
22.5809660722788
14.3004847010601
12.266724051506
11.1982516252184
10.3274975879282
9.69958237925175
9.28873499392137
9.02388950179883
8.801959825122
8.5589234743384
8.27836880053864
7.97626395342075
7.67325549436281
7.39468648085216
7.16468377380964
6.99695910259946
6.89698455655373
6.87355854075248
6.93270557231633
7.06164762541008
7.21720963300852
7.31769567824322
7.28704708734409
7.2360862025235
7.22997181938832
7.23850578761625
7.25058522977825
7.26451667283632
7.27925617246457
7.29378717491374
7.30705411615928
7.31874810942285
7.32867303767149
7.33676950928657
7.34303719304204
7.34751951821435
7.35028200474292
7.35140551753204
7.35097866415046
7.34909464437509
7.34584811398804
7.34133357155217
7.33564392385565
7.32886961133115
7.32109789351974
7.31241249244681
7.30289324262239
7.29261600596954
7.28165291891079
7.27007208822761
7.25793741317821
7.24530902990916
7.23224407943569
7.21879502288199
7.20501168996668
7.19094180482356
7.1766298706408
7.16211880494985
7.14745001002372
7.13266357120918
7.1177987956551
7.10289483127377
7.08799136008383
7.07312944521449
7.05835247184026
7.04370743310896
7.02924630667674
7.01502816585061
7.00112126485498
6.98760677382009
6.97458196585214
6.96216730043384
6.9505111414246
6.93980442461572
6.93027846683514
6.92229904346337
6.91614971749673
6.91179336757036
6.90948805595323
6.9104902812368
6.91644876614622
6.92968525766861
6.95330708193642
6.99231938371534
7.05417846479794
7.16970055088672
7.25658703928886
7.1690267042984
7.0302259585717
6.95301423003689
6.98370586242576
7.11961414539705
7.34051852737727
7.62421139767425
7.96430968164525
8.35217902048663
8.78078600574026
9.24952733890837
9.78283421674257
10.3888965795516
11.0644904237492
11.8075285904128
12.6125117127623
13.4398582943468
14.1903912331359
14.8233933071858
15.2924167490479
15.5176759652648
15.504402085765
15.5373895296988
16.4325229730599
18.3263927917054
21.1975002350618
23.50155142717
20.429993287871
20.5592621832237
21.5059355241851
28.4658329504943
43.7795699971097
42.2725478315372
23.4988487372518
13.3368499869226
10.7565967161495
9.68340020244282
8.91118322304062
8.37647651706354
8.03892491824438
7.82885674254732
7.65378886504057
7.45811894064899
7.22964863792824
6.98356907200623
6.73838314640743
6.51592630612259
6.33625667689092
6.21017193695407
6.14163537328975
6.13705705701234
6.19931680652127
6.31460686883011
6.4443910103883
6.52135919569814
6.49035659941835
6.4455259881162
6.43883997009046
6.44509863805672
6.4551999136425
6.46733307678137
6.48013892126624
6.49263267404659
6.50396347890074
6.51384247037669
6.52209399587266
6.52866217748209
6.53354555918267
6.53678310412157
6.53843513332998
6.53857680465227
6.5372911515089
6.53466587100319
6.53079031147171
6.52575377865367
6.51964410491845
6.51254673198283
6.50454400355201
6.49571478750917
6.48613414686337
6.4758733870289
6.46500006036343
6.4535776975546
6.44166591570419
6.42932078987366
6.4165954290932
6.40353889449837
6.39019770120328
6.37661631627939
6.36283652164395
6.34889861442311
6.33484160406942
6.32070348756663
6.30652175521437
6.29233398687574
6.27817852640543
6.26409529409728
6.25012670781763
6.23631889548689
6.22272305055512
6.20939738463747
6.19640921178937
6.18383832307437
6.17178027352825
6.16035260948442
6.14970006079436
6.14000698422056
6.13149994861089
6.12451189784729
6.11936945827079
6.11623956750057
6.11545297999161
6.11806583103979
6.12558547624721
6.14017040827055
6.16476854793449
6.20403241594802
6.26479087710209
6.373819993176
6.4644349404819
6.40791094373583
6.29258305856061
6.21459546888168
6.21978318502701
6.31189626553797
6.47612867634941
6.69423789110482
6.96027686910188
7.26752344622488
7.61030748881261
7.98841724114741
8.42121216191342
8.91585192707119
9.4690967402366
10.0776713322514
10.7353674196014
11.408386699879
12.0168918681422
12.527660404715
12.9081606116802
13.1016315120332
13.111395461006
13.154829629342
13.862032579239
15.3823737412322
17.6871944301234
19.5896645425132
17.4406291900511
17.6461464234982
18.4844852002262
23.7079921463416
38.3440300917013
40.8015662956377
24.9522372789759
13.0983655266257
9.80026910941111
8.64057664409791
7.91485294782662
7.43259654329954
7.13611003272371
6.95602930889983
6.80778765562823
6.6416285347967
6.44757795731607
6.23953817809953
6.03417653535541
5.85048439831492
5.70532053600058
5.60730292755546
5.55921914615359
5.56545907616096
5.62652536472907
5.72834499636461
5.8368344617371
5.89655236233902
5.86733010780778
5.82886503435064
5.82282925910427
5.82816573330067
5.83726031381936
5.84827422109803
5.85976577576889
5.87082583734708
5.88074920911426
5.88927125078445
5.8962373601195
5.9015991337652
5.90535865380365
5.9075554880473
5.90824971835855
5.90751560894053
5.90543514434355
5.90209477701984
5.89758250661531
5.89198612891382
5.88539180919716
5.87788313930393
5.86954044316672
5.86044039427748
5.85065574113991
5.84025542841358
5.82930432263863
5.81786325302711
5.80598917383493
5.79373550947006
5.78115262576224
5.76828717199645
5.75518323120573
5.74188280005032
5.72842547945804
5.71484940524084
5.7011915269554
5.6874879401226
5.67377437696615
5.66008678711159
5.64646199666928
5.63293849253994
5.61955732178357
5.60636324319094
5.5934060502876
5.58074239537779
5.5684378374043
5.55656993533251
5.5452315326133
5.5345363430563
5.52462432211609
5.51567250765818
5.5079004245208
5.50161586425015
5.49715857123869
5.49480514242651
5.49494512044582
5.49850454343756
5.50686113695112
5.52201030972488
5.54671747965984
5.5852715516959
5.64393695366552
5.74584862605307
5.83677339690966
5.80416992508085
5.71052324005286
5.63670045966616
5.62651475556845
5.68820543244429
5.81152459835819
5.98168779800763
6.19333480334896
6.44110090682669
6.72037136942573
7.03121724481687
7.38927981833337
7.80086267102544
8.26300607942468
8.7720103057199
9.32152543310727
9.88247612769512
10.3896532559694
10.8154857267408
11.1360689714434
11.3087882513799
11.3342596392447
11.3818007725683
11.950008313646
13.188714497438
15.0738712458629
16.6716505770233
15.121362265191
15.3638582627611
16.1285596728344
20.0224229545788
33.4130021419739
38.8735330560309
26.4967670454247
13.4332573102921
9.24091949697559
7.91172800601518
7.19228030202115
6.73531816131744
6.45951093180482
6.2943444009878
6.16103210518022
6.01373548216506
5.84337337883713
5.66228629639556
5.48549331692819
5.32961911127611
5.20896084402333
5.13046268266148
5.09596828903413
5.10820125734592
5.16592721894841
5.25533711318183
5.34649975739605
5.39371363172852
5.36757917002408
5.33541552024372
5.33081500267907
5.33614044633251
5.34492271859781
5.355360440075
5.36604360982182
5.37615185305051
5.38509094540649
5.39262331555842
5.39861628323058
5.40303216764696
5.40588026414444
5.40720467738688
5.40706905963189
5.40555045185349
5.4027332239514
5.39870580091769
5.39355781600205
5.38737832264887
5.38025437626915
5.37227008023072
5.36350591143778
5.35403834670169
5.34393970985801
5.33327812775768
5.32211732857732
5.31051684689432
5.29853221120874
5.28621528853819
5.27361470533575
5.26077549630944
5.24774002883448
5.23454847502369
5.22123873368379
5.20784719404406
5.19440907146224
5.18095878376353
5.16753043797634
5.15415840125129
5.14087794786141
5.12772602044616
5.11474210750856
5.10196934336482
5.08945579323039
5.07725616964146
5.06543382457724
5.0540636149872
5.04323512598685
5.03305775582889
5.02366609187151
5.01522955161124
5.00795939142982
5.00214284421422
4.99811808857643
4.99621839050335
4.99687266239437
5.00091822987732
5.00961819016659
5.02481273524503
5.04907814554094
5.08635026799979
5.14237885522764
5.23709362192717
5.32615356488084
5.31175532277351
5.2373951489216
5.17035888550486
5.15141848659131
5.1917626802844
5.28490436688476
5.41907801250163
5.58961172402373
5.79217037252031
6.02298117329229
6.28232503779177
6.58304148448045
6.93070337912472
7.32273215612968
7.75540634248001
8.22254905103247
8.69902863929788
9.13108074427238
9.49560404789754
9.77412734681236
9.93271125174459
9.96881043661126
10.016205973012
10.4783194274662
11.4993279913392
13.0626743582405
14.4213420809702
13.2757046062711
13.5334820123597
14.241221825342
17.1502098251549
28.9623346163824
36.568311261561
27.7901251941296
14.2605753662759
9.00165647291189
7.41068544937171
6.66083298019174
6.20871111910576
5.93935599875835
5.7790181942975
5.65288765860388
5.51755097777496
5.36386648781827
5.20243255351324
5.04672835577033
4.91136255068189
4.8085446933451
4.74390369660139
4.71851666308546
4.73376057087564
4.78717539435766
4.86556019564427
4.94276615597953
4.98105328782327
4.95878742149488
4.93273241284223
4.93008835853991
4.93603873160834
4.94502266320792
4.95531775234396
4.96560018104736
4.97513914162811
4.98342989393938
4.99026384659588
4.99553117725007
4.99920760684878
5.001312604962
5.00189794596864
5.00103386732536
4.99880307406053
4.99529501121804
4.99060258473952
4.984819378475
4.97803784640541
4.97034790898274
4.96183600060857
4.95258442307573
4.94267101676963
4.93216908100075
4.92114713160109
4.90966897766248
4.89779393602563
4.88557706725842
4.87306953504086
4.86031901212335
4.84736955769597
4.83426239948789
4.82103640761812
4.80772818465687
4.79437272845911
4.78100381089827
4.76765438995943
4.75435709953266
4.74114481521976
4.72805129221947
4.71511190767026
4.70236451717021
4.68985051027351
4.67761605561143
4.66571372503752
4.6542044200277
4.64316004674313
4.63266664466186
4.62282906626427
4.6137762541632
4.60566995139594
4.59871254996477
4.59317364663698
4.58938256735977
4.58769863404643
4.58857286606451
4.59277789708461
4.60147646102054
4.61636442995957
4.63983121067195
4.67547928250841
4.72858476283085
4.81629211084656
4.90213198811922
4.9014241176722
4.84381106112567
4.78479322129377
4.7615007118103
4.78686832755343
4.85744371102826
4.96408344682911
5.10285885389384
5.27026187645786
5.46321011027605
5.68214453647413
5.93774788128857
6.23496437571814
6.57161462164273
6.94416883283382
7.34680467439745
7.75776001870607
8.13248243658341
8.45149121324563
8.69967104093596
8.84820685389463
8.89114674139165
8.93529592993692
9.31415647620139
10.1635146045652
11.4737642951516
12.6397118580695
11.7762769098827
12.0370532572269
12.6948757543796
14.8933607318399
24.9929639578135
33.9914721892794
28.6727047954495
15.4999262932614
9.04988005398274
7.09063922983005
6.27192751983894
5.80703864655397
5.53311320040607
5.37013777479206
5.24561740405488
5.11735983801822
4.97543647313748
4.82855280722041
4.68869811431173
4.56872237371054
4.47910260686052
4.42441284221806
4.40510705648035
4.42149391232739
4.47028506695753
4.53909298532317
4.60515234015075
4.63721573243274
4.61926645021662
4.59908109658755
4.5987498870362
4.60578399442048
4.61536156748972
4.62586259905262
4.63607302942901
4.64534765110281
4.65325725527804
4.65962353144923
4.66436045185964
4.66745940026684
4.66895248265942
4.66890172465094
4.66738642040723
4.66449729273058
4.66033104504937
4.6549870900078
4.64856482492713
4.64116181928399
4.63287243281385
4.62378687543986
4.6139905967829
4.60356407114797
4.59258256946464
4.58111603901041
4.56922930961189
4.5569823238862
4.5444304277972
4.53162475671217
4.51861265030363
4.50543770557027
4.49214047360905
4.47875894378927
4.46532875992745
4.45188382560392
4.43845671842462
4.42507913255243
4.41178237625871
4.39859793644264
4.38555811010683
4.37269673130665
4.36005000812844
4.34765753946121
4.33556352007456
4.32381828414274
4.31248016147767
4.30161798930017
4.29131412828518
4.28166880419464
4.27280522549345
4.26487754702047
4.25807907490953
4.25266374371296
4.24894847768792
4.24730065111722
4.24817990715301
4.25230804251874
4.26075966805641
4.27509795321138
4.29753244451325
4.331355318109
4.3814042019522
4.46242096759959
4.5442280306026
4.55367138557968
4.51035719223541
4.4597329796839
4.43502783217211
4.44999435529423
4.50356588829132
4.58885533873086
4.70269253249011
4.84226442468292
5.00506842857313
5.19167140002771
5.41106802503756
5.6676624096331
5.95965877374899
6.28383062121945
6.6348205733446
6.99381219691251
7.32384733831314
7.60838518751685
7.8342119406487
7.97522877353913
8.02197657660019
8.06043426667958
8.37239183355142
9.08419825115707
10.1915383486992
11.1989874194342
10.5372477374999
10.7939558284799
11.4043796179568
13.1007134920833
21.5141145059554
31.2628567414996
29.0861815351148
17.0289553608911
9.37822572051426
6.92874957587464
5.99683974919067
5.5018697169987
5.21383377878795
5.04207866901471
4.91471935448081
4.78975798966387
4.65588995113464
4.51977769834753
4.39192273883125
4.28360036489998
4.20382108224111
4.15629628309767
4.1409755782588
4.15733522768558
4.20156034073516
4.2621812920439
4.31941791696262
4.34731177992281
4.33391819775562
4.31935740910101
4.32158902504994
4.33004890423916
4.34052704236141
4.35151726758091
4.36192257429279
4.37117780702207
4.37891983771193
4.38500155516812
4.38936165745347
4.39200916069577
4.39299093087751
4.39238145229653
4.39027118017436
4.38676084773206
4.38195625657567
4.37596502327441
4.36889391082037
4.36084702467699
4.35192446060881
4.34222138678501
4.33182750423757
4.32082689258687
4.30929762489889
4.29731193567807
4.28493642190327