/*--------------------------------*- C++ -*----------------------------------*\
  =========                 |
  \\      /  F ield         | OpenFOAM: The Open Source CFD Toolbox
   \\    /   O peration     | Website:  https://openfoam.org
    \\  /    A nd           | Version:  7
     \\/     M anipulation  |
\*---------------------------------------------------------------------------*/
FoamFile
{
    version     2.0;
    format      ascii;
    class       volScalarField;
    location    "9000";
    object      p;
}
// * * * * * * * * * * * * * * * * * * * * * * * * * * * * * * * * * * * * * //

dimensions      [0 2 -2 0 0 0 0];

internalField   nonuniform List<scalar> 
15600
(
0.884615735183332
0.89227725421441
0.881571267743617
0.923974782624841
0.963205576215857
0.986688067857465
0.997975454052343
1.0066507632245
1.01159944748639
1.0158135204184
1.01876261336289
1.02113230483748
1.02301630292097
1.02451786537155
1.02575552860178
1.02689054943409
1.02818472746672
1.02966566710898
1.03138691227788
1.03337577962881
1.03557425848799
1.03772809514316
1.03977399914177
1.04175315629312
1.04354798143147
1.04513174367296
1.04656691693863
1.04609872833439
1.04673957984388
1.04967686667302
1.05369385364595
1.05860462413014
1.06413191599288
1.07014434497659
1.07651539187805
1.08315553803688
1.08998463665103
1.09693516213595
1.10394723349589
1.1109687530696
1.11795428651818
1.12486478670957
1.13166721775358
1.13833416450069
1.14484345916723
1.15117772059607
1.15732390900726
1.16327283920952
1.16901871515129
1.1745586653967
1.17989231270162
1.18502136666822
1.18994925910266
1.19468081149157
1.19922194861304
1.20357943978199
1.20776069341377
1.21177355399728
1.21562617251421
1.21932686759536
1.22288407353286
1.2263062040595
1.2296015738876
1.23277842665582
1.23584486381725
1.2388088412012
1.24167815870988
1.24446046549544
1.24716327174867
1.24979396575977
1.25235984396999
1.25486813691711
1.25732606119011
1.25974084745314
1.26211982994923
1.26447045779963
1.26680046611229
1.26911781350109
1.27143105518574
1.27374902742721
1.27608178760304
1.27843934856644
1.28083421122508
1.28327876174063
1.28579100014179
1.28838465012148
1.29108703031862
1.29391107171276
1.29690502473533
1.3000691869041
1.30350485416491
1.30713152776609
1.31123879891654
1.31600560193153
1.31978823987716
1.32366383050631
1.32719425186423
1.3304536883987
1.33326240794611
1.33542638845362
1.33643176630581
1.33618390244143
1.33434687054455
1.33081320164999
1.32531806445515
1.31869960109394
1.31072889708284
1.3008037718043
1.28828353527676
1.27173414886013
1.24836897192233
1.21170880158112
1.15964115188517
1.08999313191992
0.993436352687845
0.876524242806411
0.75844121566367
0.75140814652584
0.78979712496737
0.859644944121295
0.884640247816484
0.892418157793904
0.881805322285977
0.92353646006803
0.962490913104009
0.986154927365048
0.997615475949159
1.00638784253295
1.01142036321644
1.01567446572578
1.01866611358503
1.02106253228107
1.02296912737436
1.02448849660634
1.02573744092918
1.02687275185765
1.02815767559929
1.02962569265902
1.03133074597366
1.03330340102841
1.03549313419699
1.03764809295711
1.0396975018582
1.04168142755286
1.04348283504314
1.04507557982763
1.04652171134486
1.04608050015011
1.04676833977592
1.04971790644244
1.0537369927548
1.05864896456534
1.06417549502859
1.07018623045965
1.07655481826601
1.08319193796019
1.0900175266862
1.09696425042094
1.10397233903327
1.11098979729547
1.11797127567907
1.12487779919791
1.13167639072295
1.13833968161857
1.14484553918556
1.15117660697906
1.15731986082271
1.16326612326436
1.16900959944817
1.17454741379658
1.1798791807476
1.18500659842902
1.18993308492278
1.19466344649211
1.19920359191011
1.2035602736567
1.20774087928257
1.21175325393056
1.21560561383113
1.21930623434271
1.22286343230704
1.22628560497776
1.22958107954489
1.23275809548098
1.23582474492683
1.23878897536889
1.24165857901126
1.24444119794892
1.24714433590271
1.24977537521602
1.25234160686773
1.25485025632696
1.25730853551281
1.25972367065849
1.26210299195005
1.26445394445463
1.26678425975506
1.26910189243717
1.2714153949686
1.27373359881112
1.27606656328842
1.27842428738815
1.28081926352461
1.28326387364747
1.28577614825294
1.28836978475878
1.29107216941406
1.29389615728154
1.29689022716997
1.30005444734822
1.30349111137629
1.30711743958516
1.3112264581021
1.31601476612725
1.3198133939938
1.32370601422419
1.32724397282808
1.33050146120577
1.3332925027482
1.33541464917213
1.3363579246363
1.33603453864379
1.33411161752986
1.33048788342255
1.32492342603339
1.31824834932421
1.31019730438297
1.3001604172051
1.28747690073418
1.27066469333793
1.24685141901253
1.20964510015288
1.15709459626497
1.08702053005624
0.990547937110398
0.874916057000048
0.759511874493337
0.75292259530191
0.790391894413348
0.85974822135912
0.884744943510917
0.892806164256894
0.88258295775769
0.923548490014347
0.961905237636017
0.985699042633874
0.997293172344756
1.00614908007408
1.01125459069008
1.0155435483716
1.01857364453563
1.02099566999886
1.02292423512838
1.02446137144169
1.02572245998096
1.02685936090178
1.02813381012093
1.02958450846771
1.03126558699029
1.03320974214016
1.03537310855855
1.03751123889094
1.0395482983074
1.04152233106034
1.04331879112189
1.04490883646111
1.04635482162472
1.04599691071943
1.04678766059727
1.04974968824298
1.05376558970401
1.05867322795766
1.0641929633509
1.07019655341397
1.07655765600265
1.08318723881323
1.09000532018527
1.09694480812645
1.10394603258819
1.11095709110419
1.1179326976564
1.12483392235363
1.13162781364408
1.1382870121293
1.14478938024558
1.15111754501997
1.15725845666349
1.16320290523782
1.16894505871474
1.1744820014022
1.17981330627248
1.18494062986541
1.18986734957436
1.19459823258201
1.19913915082121
1.20349682061136
1.20767862537625
1.21169238644194
1.21554615418631
1.21924819264333
1.22280692489548
1.22623073046831
1.22952791029778
1.23270668577533
1.23577513624646
1.23874119846052
1.24161265548583
1.24439714185208
1.24710215514437
1.24973507286815
1.2523031824199
1.25481370676793
1.25727385653359
1.25969085752938
1.26207204090668
1.26442485324564
1.26675702974779
1.26907652826238
1.27139190883598
1.27371200746118
1.27604689127795
1.27840658491649
1.28080361677671
1.28325033672816
1.28576484679989
1.28836082608105
1.29106584948758
1.29389261974033
1.29689014437415
1.30005780051998
1.30349945015843
1.3071297054334
1.3112300682092
1.3160212042755
1.31981544490111
1.32371099380234
1.32724194463224
1.33048490016559
1.33324559242086
1.33531701252751
1.33619587155064
1.33580099037383
1.33380125948312
1.3301033468603
1.32448568000192
1.31775907488002
1.30962619596045
1.29947587238408
1.28662779936883
1.26955769881441
1.24534901649432
1.207740962342
1.15493731163918
1.08483610648194
0.989167457168844
0.87591858098432
0.763915588782373
0.756852064425591
0.792028966772219
0.860060621667566
0.884974677204818
0.893491283084569
0.884028109818471
0.924227774931953
0.961490431254885
0.985307061017178
0.996991645112946
1.00592083879154
1.01109405489232
1.015413558687
1.01848008186608
1.02092819196695
1.02287991543066
1.02443633882813
1.02571141344773
1.02685105511957
1.02811180789242
1.02953799994363
1.03118430419706
1.03308529131555
1.03520380025053
1.03730868843278
1.03932084845678
1.04127484684277
1.04306055699286
1.04464474010835
1.04609111283752
1.04587803045183
1.04681027616626
1.04977881197673
1.05378281686534
1.05867679938401
1.06418064139128
1.07016867343708
1.07651459449731
1.08312985313834
1.08993440880734
1.09686138319018
1.10385118555177
1.11085198869868
1.11781854347705
1.12471193362108
1.13149919566014
1.13815293744262
1.14465097126598
1.15097586037136
1.15711448148576
1.16305754476847
1.16879913507495
1.17433625282502
1.1796683885097
1.18479711918227
1.18972574701209
1.19445896899823
1.19900259217502
1.20336328009764
1.20754833436051
1.21156547681104
1.21542279215546
1.21912855541342
1.22269111902003
1.2261188351687
1.22941997957588
1.23260275418376
1.23567522354876
1.23864531305728
1.24152079728148
1.24430930500686
1.2470183306069
1.24965525072504
1.25222735422891
1.25474186767652
1.25720600769064
1.25962700808521
1.26201221098402
1.26436907575265
1.26670535490292
1.26902902452729
1.27134867147034
1.27367315648305
1.2760125810711
1.27837706341149
1.28077921396433
1.28323131835848
1.28575162932317
1.28835386372108
1.29106595134225
1.29390043159547
1.29690717543907
1.30008452744723
1.30353814823358
1.30718067598685
1.31125805377946
1.31601828229314
1.31977947991423
1.3236558986352
1.3271580412386
1.33036736309674
1.33307809599704
1.33508202420309
1.33588577107516
1.33541395613513
1.33333619825356
1.32956881164076
1.32390544906161
1.31712725933917
1.30890555212713
1.2986308316248
1.28560211412612
1.26825558161682
1.24365818110066
1.20571795115091
1.15278471425283
1.08287500434252
0.988394218478756
0.878171310200683
0.770218426218167
0.76270090021048
0.794925691604818
0.860709833398372
0.885327101392198
0.894404340654927
0.885877799568626
0.925372455736829
0.961339397347743
0.984996572977242
0.996701815876093
1.00568450608524
1.0109280362342
1.01527812106281
1.01838183702372
1.02085856866327
1.02283662413346
1.02441578903713
1.02570809889953
1.02685220819602
1.02809657630842
1.02949241497955
1.03109582796852
1.03294401085983
1.03500727136262
1.03707107816884
1.03905338169907
1.04098448650678
1.04275959498167
1.04434168527347
1.04579456249429
1.0457494761824
1.04682755734322
1.04979970190415
1.05378915207798
1.05866420862473
1.06414686094142
1.07011429205037
1.07644033288219
1.08303689111905
1.08982400885073
1.09673498828958
1.10371031336226
1.11069822152607
1.11765348665914
1.12453718862081
1.13131633184819
1.13796346865022
1.14445633674867
1.15077740994273
1.1569134653741
1.16285510723431
1.16859631178234
1.17413397101759
1.17946746970554
1.18459828366275
1.18952961975458
1.19426608640729
1.19881340876429
1.20317817620237
1.20736761336397
1.21138941341935
1.21525163486485
1.21896247672655
1.22253023538876
1.22596323050497
1.22926971268126
1.23245786239713
1.23553572723932
1.23851122000815
1.24139210640968
1.24418600993073
1.24690042296213
1.24954272327872
1.25212020400312
1.25464009884575
1.25710963488518
1.25953605924742
1.26192673148538
1.26428913118219
1.26663103727994
1.26896045429693
1.27128600881385
1.27361660077861
1.27596238670881
1.27833357903667
1.28074295313329
1.28320273785978
1.28573132537123
1.28834250217205
1.29106464385004
1.2939101022927
1.29692972644994
1.3001206730036
1.30358989185602
1.30724880216456
1.31129691032063
1.31600765038564
1.3197169720439
1.32355612772721
1.32701043658592
1.33016822679714
1.33280990299974
1.33472770721568
1.33543979490715
1.33487718173016
1.3327100812077
1.32886588017053
1.3231523235154
1.31631579223474
1.30799371382171
1.29757752904379
1.28434311888101
1.26668625685376
1.24166874334103
1.20338999132271
1.15034645902148
1.08069161671403
0.987529580974325
0.880554172922392
0.776884364805698
0.769166317026067
0.79845015761926
0.861602908773919
0.885801331936319
0.895483212188288
0.887911735199053
0.926712355326499
0.96149230934363
0.984802584706666
0.996469508690226
1.00544091006509
1.01075517754516
1.01513869935701
1.01828163804509
1.02079016732098
1.02279817711087
1.02440367418718
1.02571598697753
1.02686565377091
1.02809165659251
1.0294531943923
1.03100856304967
1.03279838906816
1.0348007199697
1.03681887372155
1.03876815430416
1.04067467608843
1.04243889208882
1.04402092695643
1.04548302885594
1.04560991035504
1.04682983900385
1.04980824358774
1.05378581803854
1.05864055126372
1.06410010872871
1.07004459636479
1.07634834711686
1.08292385895005
1.0896913736897
1.09658437786799
1.10354345203583
1.11051690172038
1.11745952522675
1.12433239407694
1.13110247393587
1.13774225215513
1.14422938098351
1.15054623258034
1.15667947162616
1.16261958308381
1.16836042133942
1.17389875692324
1.17923385628799
1.18436708202908
1.1893015344636
1.19404172274155
1.19859328389785
1.20296271906746
1.20715719246847
1.21118434476659
1.21505215698855
1.21876877138708
1.22234244343903
1.2257814562055
1.22909403145706
1.23228832506137
1.23537236520115
1.23835405016944
1.2412411353753
1.24404123803262
1.24676184800563
1.24941034406636
1.25199402385886
1.25452012889248
1.25699589774308
1.25942859224845
1.26182559121129
1.26419439657097
1.26654281633719
1.26887888630663
1.27121127624893
1.27354892908295
1.27590206285589
1.27828097128139
1.28069860581643
1.2831671742264
1.28570518673475
1.28832644385622
1.29105974946594
1.29391718605026
1.29695043133935
1.30015528618249
1.30363878722271
1.30731208515459
1.31133009147915
1.31598871523719
1.31963938836771
1.32343064255933
1.32682414038187
1.32991720003784
1.33247585681359
1.33429377618067
1.33490079897286
1.33423512515033
1.33196800550367
1.32803854326634
1.32226691702971
1.31536268741374
1.30692813969492
1.29635431628066
1.28289175693437
1.26489619460487
1.23943228147003
1.20080415578217
1.14765944282248
1.07830636774798
0.986558615459639
0.882935507368523
0.783610037720021
0.775830998950868
0.802292507820582
0.862704843617384
0.886401608578938
0.896697554774044
0.890064262479482
0.928172887978339
0.961889153190752
0.98469782373189
0.996353068527966
1.00520959675914
1.01058017828121
1.01499949399859
1.01818360448718
1.02072628630873
1.02276690049272
1.02440105815419
1.02573480344793
1.02689037385483
1.02809675088069
1.02942159197082
1.0309256857511
1.03265361977978
1.03459094906661
1.03655943727025
1.03847235033466
1.0403520224195
1.04210382145406
1.04368638417505
1.04515843423879
1.04545803524893
1.04681601552119
1.0498039066715
1.05377298950856
1.05860715805709
1.06404287823052
1.06996302066645
1.07624294752558
1.08279584554431
1.08954226303257
1.09641588853433
1.10335743105298
1.11031527284144
1.11724424448452
1.1241054101598
1.13086569579893
1.13749751992393
1.14397844393475
1.15029073151375
1.15642092715945
1.16235938822888
1.16809983851925
1.17363891825291
1.17897576682268
1.18411162508579
1.18904947861765
1.19379372958854
1.19834991836342
1.20272445735315
1.20692443381331
1.21095741512488
1.21483131396171
1.21855422135153
1.22213434816474
1.22557993738989
1.22889917856112
1.232100200254
1.23519100916614
1.23817948734964
1.24107337854891
1.24388029266157
1.24660771627866
1.24926302869407
1.25185353184446
1.25438647502889
1.25686910850754
1.25930870917387
1.26171267555775
1.2640885324865
1.26644411760182
1.26878749841473
1.27112738811895
1.2734727724243
1.27583393212173
1.27822122982496
1.28064777803188
1.28312578753264
1.28567387380426
1.28830578786222
1.29105070508451
1.29392034646583
1.29696700307997
1.30018498382023
1.30368027469506
1.30736451775343
1.31135180517706
1.31595905179723
1.31954903692421
1.32328586834976
1.32660918039618
1.32962717415419
1.33209193169393
1.33379950957215
1.33429112479745
1.3335125949579
1.33113681837492
1.32711482434011
1.3212771611928
1.31429536245142
1.30573677321671
1.29499095100932
1.28128133987381
1.26292552657583
1.23699929789204
1.19802118828612
1.14479364198426
1.07579747717209
0.985562938548024
0.885371855811453
0.79038615728581
0.782614385519184
0.80637030971055
0.864009583819565
0.887124334940971
0.898025983732227
0.892299336435162
0.929730156591425
0.96242022810928
0.984652691426119
0.996361113497348
1.00501923362397
1.01040940734786
1.01486354861402
1.0180900897341
1.02066808670107
1.02274283520319
1.02440692495217
1.02576281104815
1.02692450865318
1.02811064703315
1.02939736483162
1.03084796417397
1.03251141722987
1.03438040661634
1.0362955710425
1.03816885160277
1.04001931851545
1.04175690618197
1.04334064359117
1.04482338430438
1.04529543030552
1.04678714145067
1.04978735473984
1.05375121633905
1.05856500125575
1.06397664427795
1.0698714902312
1.07612650198278
1.08265560024984
1.08937975585776
1.096232879263
1.10315584329824
1.11009711705877
1.11701157423705
1.12386027531137
1.13061010869758
1.1372334234752
1.14370768823095
1.15001505473854
1.15614194293384
1.16207857738754
1.16781854558934
1.17335835137752
1.1786970008443
1.18383560682944
1.18877703377717
1.19352557281269
1.19808665860395
1.20246660894706
1.2066724281534
1.21071160535649
1.21459198693877
1.21832160775227
1.22190862879576
1.22536124993896
1.22868762579487
1.23189585532391
1.2349939217999
1.23798968936624
1.24089088873849
1.2437051213948
1.24643986978658
1.249102513074
1.25170035701235
1.25424065837025
1.2567306788874
1.25917771038563
1.26158917101258
1.26397260832852
1.26633588929812
1.26868711258309
1.27103503373106
1.27338867942706
1.2757583919882
1.27815459127033
1.28059053049987
1.28307843079185
1.28563700399505
1.28827989666599
1.29103658705674
1.29391834454623
1.29697785278548
1.30020783063859
1.30371231825131
1.30740391037877
1.31135939845797
1.31591605611978
1.31944468294318
1.32312253287866
1.32636824367915
1.32930230853965
1.33166367438562
1.33325185370837
1.33361904354636
1.33271889340976
1.33022658359083
1.32610507135425
1.32019309326146
1.31312326542519
1.30442885749371
1.29349699722952
1.27952265885381
1.26078806306296
1.23438874617453
1.19506588934271
1.14177965579871
1.07320034780591
0.984578571863643
0.887883448118904
0.797196420617577
0.789457604148531
0.810617792265855
0.86549020957078
0.887964220964552
0.899451538520498
0.894590168251265
0.931333830515441
0.963023902298469
0.984671099336827
0.996444281054408
1.00489967697938
1.01025000302577
1.01473221425688
1.01800163768364
1.02061526753921
1.02272499070961
1.02441979119202
1.02579835055123
1.02696657260091
1.02813240110693
1.02938026246475
1.03077585078797
1.032372913838
1.03417084948838
1.03602946159117
1.0378600812117
1.0396791337318
1.04140077755267
1.04298662737087
1.04448106078593
1.04512396996291
1.04674420852889
1.04975935833504
1.05372122595048
1.05851515131079
1.06390288543641
1.06977186955221
1.07600124878713
1.08250568563047
1.08920669982793
1.0960384423512
1.10294198738806
1.109865901269
1.11676511348175
1.12360068616332
1.13033947478364
1.13695376092146
1.14342092119892
1.14972299495729
1.15584627612205
1.1617808541675
1.16752017729834
1.17306060945824
1.17840101955994
1.18354238823457
1.18848745467054
1.19324039429927
1.19780653193989
1.20219208673553
1.20640397491199
1.21044960594702
1.21433675581701
1.21807339891301
1.22166764313221
1.22512764249473
1.2284615142366
1.23167732548408
1.23478303415794
1.23778648476573
1.24069539351102
1.24351735217345
1.24625983796977
1.24893022899136
1.25153583400409
1.25408391653828
1.25658174915385
1.25903663795552
1.26145601998424
1.26384746468403
1.26621886717921
1.26857835576571
1.27093472604827
1.27329704244233
1.27567570523497
1.27808117963932
1.28052683770002
1.28302490538941
1.28559417953879
1.28824815429602
1.29101653104543
1.29391003874166
1.29698152792778
1.30022205023117
1.30373299829836
1.307428110489
1.31135051135826
1.31585751320095
1.31932473622341
1.32294029775016
1.32610245596478
1.32894486058995
1.33119434794255
1.33265498625796
1.33288954196391
1.3318596084791
1.32924326392778
1.32501521851971
1.31902017600837
1.31185122984431
1.30300877885998
1.29187664077157
1.27762032107736
1.25849009490534
1.23161006581552
1.1919515066319
1.138635117265
1.07053660249225
0.983627207347168
0.890477501189824
0.804024230137165
0.796321889702923
0.81499043284576
0.867122721554048
0.888917777964075
0.900961388992548
0.896924520240737
0.932930167977882
0.963683798272379
0.984779625797723
0.996537668186513
1.00487609110949
1.01011222792041
1.01460675524029
1.01791833549116
1.02056731336458
1.02271242609262
1.02443848875243
1.02584025577141
1.02701560468428
1.02816147705984
1.02937027542751
1.03070986928604
1.03223915377298
1.03396381998953
1.03576300160564
1.03754812287611
1.03933369124052
1.0410377489526
1.04262682052796
1.04413405250443
1.04494519904144
1.0466881784723
1.04972069492015
1.05368371361142
1.05845858137007
1.06382291741234
1.06966580827593
1.07586916174876
1.08234836101928
1.08902560856276
1.09583531143492
1.10271878417765
1.10962470049714
1.11650805966882
1.12332993208504
1.13005714672308
1.13666192172014
1.1431215449792
1.14941794540709
1.1555372920484
1.16146953952008
1.16720799621807
1.17274888499526
1.17809093584581
1.18323499480988
1.18818367457754
1.19294103007706
1.1975122730485
1.20190352295774
1.20612160381841
1.21017384289015
1.21406794221991
1.21781181289514
1.22141350716335
1.2248811307179
1.22822276108396
1.23144643140376
1.23456007231884
1.2375715069124
1.24048843527558
1.24331843803996
1.24606898587345
1.24874745459706
1.25136115486248
1.25391735588824
1.25642333996747
1.25888642635755
1.26131406969298
1.26371385980696
1.26609371802344
1.26846179987424
1.27082693757372
1.27319822873624
1.27558612585778
1.27800112727442
1.28045670028196
1.28296506249135
1.28554507839069
1.28821004598122
1.29098980248308
1.2938944495858
1.29697677741885
1.30022610583143
1.30374065177162
1.30743526702324
1.31132311347589
1.31578142423479
1.31918746287692
1.32273826575381
1.32581209980975
1.32855610901745
1.33068614517455
1.33201191348804
1.33210635685449
1.3309390572247
1.32819156078083
1.32384997494121
1.31776273956136
1.31048307566446
1.30147996612327
1.29013310405079
1.27557793196035
1.25603678063775
1.22867135620865
1.18868990953842
1.13537658095513
1.06782744712551
0.9827310474818
0.893164371065025
0.810862265445085
0.803187129621749
0.81946596376483
0.868893787345588
0.889983748541005
0.902546174233366
0.899298196526348
0.934476191507174
0.964385422578553
0.984990709760668
0.996614167132147
1.00495796640359
1.01001106597781
1.01448953873195
1.01784051180383
1.02052396878631
1.02270452310801
1.02446222125
1.02588774233869
1.02707098413339
1.02819757670198
1.0293675109291
1.03065054055381
1.03211106307553
1.0337606422719
1.03549780485172
1.03723475574257
1.03898490439049
1.04066983729349
1.04226333177139
1.04378448231123
1.04476049014393
1.04662007484641
1.04967218562568
1.05363935024495
1.05839617557193
1.06373790445811
1.06955475681573
1.07573197233729
1.08218560871777
1.08883869000808
1.09562589065239
1.10248880535909
1.10937622473769
1.11624323275025
1.12305091557756
1.12976608372904
1.13636089778877
1.14281256229841
1.14910289998032
1.15521795844876
1.16114756001333
1.16688487497238
1.17242598601102
1.17776948438165
1.18291608139496
1.18786826258755
1.19262995901947
1.19720626935287
1.20160321098913
1.20582751352512
1.20988641958568
1.2137875549027
1.21753876493784
1.22114804397631
1.22462344715058
1.22797301008665
1.23120472987599
1.23432650796868
1.23734614419
1.24027132082081
1.24310960574852
1.24586846158641
1.2485552604486
1.25117731346691
1.2537418941494
1.25625629305385
1.25872784102768
1.26116400848416
1.26357240357566
1.26596097115099
1.26833789079482
1.27071202684372
1.27309250446036
1.27548982060985
1.27791449405585
1.28038006249035
1.28289871673147
1.28548936483958
1.28816506778442
1.29095570671095
1.29387067277549
1.29696247270134
1.30021863820236
1.30373384996057
1.30742385816968
1.31127548411929
1.3156858752886
1.3190309294799
1.322514999382
1.32549665355717
1.32813638953033
1.33014022733799
1.33132452551633
1.33127204861551
1.32996035973181
1.32707497974425
1.32261287995099
1.31642402897154
1.3090216513174
1.29984495881862
1.28826877720531
1.27339832189486
1.25343251386472
1.2255799251334
1.18529226821296
1.13202010299745
1.06509376356811
0.981911994489333
0.895955491186458
0.817707266292917
0.810040991573481
0.824031936626657
0.870796437300091
0.89116250190736
0.90419917457311
0.9017092498106
0.935944258293784
0.965112924244139
0.985292759209839
0.996689017025749
1.00512981789966
1.00996563549715
1.01438483573892
1.01776893028967
1.02048527709454
1.02270094476163
1.02449045367887
1.02594025888993
1.02713228382388
1.02824052823746
1.02937212923619
1.03059837126186
1.03198949114175
1.03356251474056
1.03523533962594
1.03692161720349
1.03863455347797
1.04029893770554
1.04189808562985
1.04343423277408
1.04457112913811
1.04654096775643
1.04961470020478
1.05358881946361
1.05832879184837
1.06364894165575
1.06944006687219
1.07559128657238
1.08201926510823
1.08864798942828
1.0954124077291
1.10225443490733
1.10912298717073
1.11597324868774
1.12276632971973
1.12946903170916
1.13605346523396
1.1424967587734
1.14878063520677
1.1548910263368
1.16081762688636
1.16655347287517
1.17209450974103
1.17743919191385
1.1825880984669
1.187543586697
1.19230946297716
1.19689071461011
1.20129325476509
1.2055237174131
1.20958925888712
1.21349742684285
1.21725599915799
1.22087291014086
1.2243561623722
1.22771374754726
1.23095362472922
1.23408366428371
1.23711164090798
1.240045217287
1.24289194683293
1.24565928241985
1.24835459079834
1.25098518191016
1.25355833184771
1.25608133760447
1.25856153964721
1.26100642186634
1.26342360812115
1.26582106343457
1.26820698752485
1.27059027137598
1.27298006102441
1.27538688833434
1.27782127916689
1.28029681568963
1.28282563978189
1.28542667236329
1.28811269827578
1.29091354752653
1.29383782219578
1.29693753156496
1.30019836668748
1.30371126920817
1.30739251540482
1.31120606880859
1.31556900030484
1.31885307885037
1.32226868655291
1.32515500222072
1.32768532158824
1.32955696857338
1.33059386237838
1.33038827840679
1.32892571059303
1.32589608721452
1.32130653910445
1.3150064145604
1.30746902807238
1.29810560560322
1.28628543943096
1.27108380117645
1.25068121638064
1.22234260683303
1.18176931100222
1.12858133165928
1.06235586620124
0.98119076174295
0.898861406254143
0.824556769158674
0.816874230494556
0.828679726860215
0.872826716416101
0.892455383752378
0.905915679174376
0.904156026633987
0.937325148806671
0.965851820321752
0.985667545982093
0.996796169173305
1.00534841340254
1.00999615006928
1.01429970271451
1.01770498955221
1.02045159677095
1.02270160688264
1.02452285358097
1.02599741023908
1.02719919570833
1.02829023509009
1.02938432406051
1.03055386776579
1.03187525680511
1.03337058377908
1.03497701926555
1.03661030007548
1.03828437963511
1.03992690618127
1.04153290375043
1.04308503504336
1.04437834191888
1.04645197064312
1.04954915990087
1.05353283789309
1.05825729712625
1.06355710205724
1.06932304929707
1.07544865252617
1.08185109684247
1.08845547286222
1.09519700373204
1.1020179641644
1.10886740371862
1.11570062269105
1.12247876437855
1.12916863180509
1.13574229464432
1.14217681444115
1.1484538225597
1.15455914267563
1.1604823487225
1.16621634828348
1.17175695432586
1.17710248877974
1.18225340203817
1.18721192172437
1.19198173377963
1.19656771454203
1.20097567244807
1.20521214532637
1.20928420229655
1.21319931170316
1.21696518230319
1.22058968675268
1.22408077333496
1.22744638794339
1.23069444972879
1.23383279610395
1.236869174738
1.23981122685327
1.24266648952727
1.2454424040385
1.24814632990393
1.25078557394753
1.25336741284158
1.25589914783316
1.25838812663789
1.26084184384331
1.26326793587161
1.26567438390468
1.26806940315547
1.27046190480738
1.27286104811701
1.2752773885385
1.27772144492111
1.28020681690072
1.28274557266569
1.28535660902144
1.28805239663357
1.2908626169607
1.29379500990358
1.29690088589302
1.3001640426945
1.3036716257037
1.30733993038779
1.3111133962796
1.31542896563639
1.31865179101095
1.32199727564072
1.3247856159362
1.32720200523649
1.32893617200877
1.32982035622515
1.32945607437364
1.32783665955438
1.324656800055
1.31993291959241
1.31351168839879
1.30582679948965
1.29626338312022
1.28418461765678
1.26863657135655
1.24778681400139
1.21896630502168
1.17813191398355
1.12507624911283
1.05963422494875
0.980587195941802
0.901891565975977
0.83140847490856
0.82367944329225
0.833402782782008
0.874982235379042
0.893864229176389
0.907692529931039
0.90663675465415
0.938627826158187
0.966583035702761
0.986095692427158
0.996964987454322
1.00556259245054
1.01011975102641
1.01424492862145
1.0176510748571
1.02042366761764
1.02270669184828
1.02455927792766
1.02605892425921
1.02727149165026
1.02834664638673
1.02940430912987
1.03051754021321
1.0317691690044
1.03318597773371
1.03472424321888
1.03630239532548
1.03793612346328
1.03955559210633
1.04116954192932
1.04273851592891
1.04418332033019
1.04635425180206
1.04947654476625
1.05347216898829
1.05818258716393
1.06346346131916
1.06920500318464
1.07530559336424
1.08168283742359
1.08826306650619
1.0949817748526
1.10178163556983
1.10861183835805
1.11542781577854
1.12219075373907
1.12886746864995
1.13542999987105
1.14185535288765
1.14812507778343
1.15422489977482
1.16014428080594
1.16587600779597
1.17141576776258
1.17676175716518
1.18191430042062
1.18687549780534
1.19164892026402
1.19623933356744
1.20065244244229
1.20489468880759
1.20897305432908
1.21289492735625
1.21666794642938
1.22029992121811
1.22379874421123
1.22717231379502
1.2304285074234
1.23357512771895
1.23661989339975
1.23957042228407
1.24243423313329
1.24521875360756
1.2479313339116
1.25057927557037
1.25316985353545
1.25571037077487
1.25820817948452
1.26067078169192
1.26310582270752
1.26552129519304
1.26792542450103
1.27032713459368
1.2727355893373
1.27516135479597
1.27761492782104
1.28010989731667
1.28265823123337
1.28527875954532
1.28798360132239
1.2908021903541
1.29374133714374
1.29685146766282
1.3001144304871
1.30361365043796
1.30726481968961
1.31099604037657
1.31526395848003
1.31842491305057
1.32169855361324
1.32438665919713
1.32668514051531
1.32827719615922
1.3290039702503
1.32847598477135
1.32669427391559
1.32335855461201
1.31849352635099
1.31194124739943
1.30409627228272
1.2943196065884
1.28196783256893
1.26605901407898
1.24475356792146
1.21545837681811
1.17439176716059
1.12152216983585
1.0569498817084
0.980120794366978
0.905054315912353
0.838260085435557
0.830450455659146
0.838195774403093
0.877261403534527
0.895391025753736
0.909527775617492
0.909149411080235
0.939874428167083
0.967279510394848
0.986554819081047
0.997203950333674
1.00574632171573
1.01034240337826
1.01423547093729
1.01761109741455
1.02040272630864
1.022716688544
1.0245997873186
1.02612464478545
1.0273490047439
1.02840973910185
1.02943230740824
1.03048990105479
1.03167203483642
1.03300982305879
1.03447841782413
1.035999514458
1.03759154571952
1.03918685752882
1.04080971764724
1.04239623662413
1.04398724788185
1.04624904613504
1.04939790126396
1.05340763534062
1.05810560164369
1.0633691152187
1.06908723539667
1.07516362842018
1.08151620959352
1.08807267996052
1.0947687963427
1.10154766705256
1.1083586278125
1.11515725963383
1.12190480123035
1.12856809529254
1.13511916290368