/*--------------------------------*- C++ -*----------------------------------*\
  =========                 |
  \\      /  F ield         | OpenFOAM: The Open Source CFD Toolbox
   \\    /   O peration     | Website:  https://openfoam.org
    \\  /    A nd           | Version:  7
     \\/     M anipulation  |
\*---------------------------------------------------------------------------*/
FoamFile
{
    version     2.0;
    format      ascii;
    class       surfaceScalarField;
    location    "9000";
    object      phi;
}
// * * * * * * * * * * * * * * * * * * * * * * * * * * * * * * * * * * * * * //

dimensions      [0 3 -1 0 0 0 0];

internalField   nonuniform List<scalar> 
30950
(
8.89506381504831e-05
-1.49284070212179e-05
8.74874603901748e-05
1.46317773586443e-06
3.25360998452885e-05
5.49513606163302e-05
-1.6938815534723e-05
4.94749152909961e-05
-3.42108549292962e-05
1.72720393806638e-05
-2.79200018313403e-05
-6.29085308194362e-06
-2.16904494250852e-05
-6.22955240484487e-06
-1.78368915515895e-05
-3.85355787212268e-06
-1.64704306652165e-05
-1.36646089062257e-06
-1.58225632722577e-05
-6.47867391444825e-07
-1.58543662256398e-05
3.18029533781141e-08
-1.63640012470387e-05
5.09635022585883e-07
-1.73115433685103e-05
9.47542120521385e-07
-1.89823161506172e-05
1.67077278455171e-06
-2.16307744826038e-05
2.64845833201263e-06
-2.53370839760785e-05
3.70630949345706e-06
-2.96988383310417e-05
4.36175435366324e-06
-3.46143510973631e-05
4.91551276639282e-06
-3.99052538741087e-05
5.29090277571216e-06
-4.51328499917109e-05
5.22759611802884e-06
-4.98131380697929e-05
4.68028807816451e-06
-5.42523812341895e-05
4.43924316466327e-06
-5.85266606561934e-05
4.27427942228628e-06
-6.20427522472788e-05
3.5160915916796e-06
-6.46112279450588e-05
2.56847569846645e-06
-6.61263377105818e-05
1.51510976643085e-06
-6.6545798661326e-05
4.19460950738581e-07
-8.0049830133335e-05
1.35040314733764e-05
-9.91864783919701e-05
1.91366482587115e-05
-0.000111973875975266
1.27873975847155e-05
-0.000119972478886414
7.9986029117863e-06
-0.000124955114073597
4.98263518770316e-06
-0.000127825429771358
2.87031569782395e-06
-0.00012903603152622
1.21060175472527e-06
-0.000128892742446158
-1.43289080901665e-07
-0.000127613387607366
-1.27935483769462e-06
-0.000125373383444884
-2.24000416193751e-06
-0.00012230780636095
-3.06557708197033e-06
-0.000118535471765772
-3.77233459526975e-06
-0.000114163258795194
-4.37221296959996e-06
-0.000109289032261839
-4.87422653315936e-06
-0.000104002921242275
-5.28611101835084e-06
-9.83875969829556e-05
-5.61532426030815e-06
-9.25185442388137e-05
-5.86905274400834e-06
-8.6464033674629e-05
-6.05451056433946e-06
-8.02852980426003e-05
-6.17873563021059e-06
-7.40366768453741e-05
-6.24862119786791e-06
-6.77659228795578e-05
-6.27075396315613e-06
-6.15145425609405e-05
-6.2513803201046e-06
-5.53182309296399e-05
-6.19631162799957e-06
-4.92073216828735e-05
-6.11090924479721e-06
-4.32072856059285e-05
-6.00003607115282e-06
-3.73392168360148e-05
-5.86806876292133e-06
-3.16203324912502e-05
-5.7188843386287e-06
-2.60644327682716e-05
-5.5558997131937e-06
-2.06823735034529e-05
-5.38205926223924e-06
-1.54824368354018e-05
-5.19993664894186e-06
-1.04707921785909e-05
-5.01164465581753e-06
-5.65177579344565e-06
-4.81901637497102e-06
-1.0280388778073e-06
-4.62373692853098e-06
3.39843543970874e-06
-4.4264743035403e-06
7.62659610619406e-06
-4.22816067653338e-06
1.1656613539649e-05
-4.03001743425906e-06
1.54890072623814e-05
-3.83239374210596e-06
1.91244850662218e-05
-3.63547780962146e-06
2.25638813478241e-05
-3.43939629350773e-06
2.58079896333919e-05
-3.24410828969733e-06
2.88574152277258e-05
-3.04942559763323e-06
3.17124321903278e-05
-2.85501696594967e-06
3.43728292820107e-05
-2.66039709219166e-06
3.68377738706049e-05
-2.46494459223793e-06
3.91056237981236e-05
-2.2678499275619e-06
4.11737901546387e-05
-2.06816636132512e-06
4.30384585233684e-05
-1.86466836876707e-06
4.46944647143865e-05
-1.65600619601186e-06
4.6134800826239e-05
-1.44033611098225e-06
4.7350588333379e-05
-1.21578750826688e-06
4.83300718126423e-05
-9.79483475229406e-07
4.90589882506841e-05
-7.2891643881152e-07
4.95184440740549e-05
-4.59455820569832e-07
4.96869588238571e-05
-1.68514753509499e-07
4.95363854153615e-05
1.50573408492708e-07
4.90364640875758e-05
4.99921324695919e-07
4.81369216436008e-05
8.99542445436381e-07
4.67854087002292e-05
1.35151294308075e-06
4.48869093865024e-05
1.89849931694916e-06
4.23614015606269e-05
2.52550782423566e-06
3.90279698787202e-05
3.33343168319739e-06
3.47696209075613e-05
4.25834897049327e-06
2.92034009944202e-05
5.56621991524973e-06
2.20913532170603e-05
7.11204777726672e-06
1.23547795472201e-05
9.73657366894696e-06
5.27646856775001e-06
7.0783109769977e-06
7.93683162804582e-06
-2.66036305881688e-06
1.10290074320897e-05
-3.09217580705209e-06
1.56582360931319e-05
-4.62922865874401e-06
2.08906948848674e-05
-5.23245879188936e-06
2.68876388735018e-05
-5.99694398831843e-06
3.38595448166452e-05
-6.97190594365297e-06
4.20691413211287e-05
-8.20959650422991e-06
5.04302830090236e-05
-8.36114168942209e-06
5.89048361394951e-05
-8.47455313244355e-06
6.71055195280225e-05
-8.20068339343528e-06
7.46109258111777e-05
-7.50540627298524e-06
7.98074155399086e-05
-5.19648972904824e-06
8.37746743137646e-05
-3.96725877261508e-06
8.73007318662821e-05
-3.52605755462006e-06
9.07878115688979e-05
-3.48707971496921e-06
9.51776422735128e-05
-4.38983068749392e-06
0.000102459127848184
-7.28148557187883e-06
0.000115181297578464
-1.27221697265031e-05
0.000131434474809679
-1.62531772255313e-05
0.000152725416051727
-2.12909412422288e-05
0.000183202923922043
-3.0477507868892e-05
0.00021860968517839
-3.54067612519632e-05
0.000234776307951087
-1.61666227727943e-05
0.000184029826640799
5.07464813131068e-05
0.000118710770605921
6.53190560571078e-05
7.00768464826782e-05
4.86339242322639e-05
-3.94538471312001e-06
0.00028005077345022
-2.62058838174357e-05
0.000270663137851743
1.08508133168885e-05
0.000155570721507747
0.000170043777008969
6.41959631102204e-06
0.000198626040414585
-7.1875832571544e-05
9.55674682573039e-05
-7.05116202321631e-05
-7.65506540582993e-06
-5.70127524309959e-05
-1.9728420204617e-05
-4.86614296137919e-05
-1.22048806871849e-05
-4.56360738904483e-05
-4.39181661885012e-06
-4.48467272557828e-05
-1.43721402453695e-06
-4.57329103398399e-05
9.17986037702655e-07
-4.79999164632464e-05
2.77664114747004e-06
-5.16174722006951e-05
4.56509785659642e-06
-5.72794404748299e-05
7.3327410608678e-06
-6.54700060405416e-05
1.08390238973663e-05
-7.61307797810699e-05
1.43670832338733e-05
-8.83944734759009e-05
1.66254480473375e-05
-0.000101882322555413
1.840336184596e-05
-0.000116063110184211
1.94716904037834e-05
-0.000130070199020057
1.92346849542597e-05
-0.000143234246135399
1.78443351936073e-05
-0.000155892062276514
1.70970593060073e-05
-0.00016783129662661
1.6213513772458e-05
-0.000178030662381941
1.37154573472495e-05
-0.000186298849643113
1.08366629598497e-05
-0.000194310508553576
9.52676867724477e-06
-0.000205723131724411
1.18320841214364e-05
-0.000232900649826341
4.06815495760376e-05
-0.000262133987005985
4.83699854382691e-05
-0.000279446253632119
3.00996642115465e-05
-0.000288241526038587
1.67938753184687e-05
-0.000291908171009871
8.64928015917003e-06
-0.000291898909437108
2.86105412491857e-06
-0.000289085073119441
-1.60323456307298e-06
-0.000284030519881281
-5.19784231963474e-06
-0.000277138264172272
-8.17161054622625e-06
-0.000268709296227081
-1.06689721070518e-05
-0.000258990444296045
-1.27844290121176e-05
-0.000248191893246151
-1.45708856453712e-05
-0.000236498586639305
-1.60655195759831e-05
-0.000224075200000428
-1.7297613172155e-05
-0.000211069704109456
-1.82916069087108e-05
-0.0001976150153908
-1.90700129796946e-05
-0.000183830406855663
-1.96536612790787e-05
-0.000169822383326029
-2.00625340942428e-05
-0.000155685576616793
-2.03155423386139e-05
-0.000141503512128669
-2.04306856865244e-05
-0.000127349423006166
-2.0424843084494e-05
-0.000113287040117804
-2.03137632094273e-05
-9.9371403787943e-05
-2.01119479563977e-05
-8.56496519650509e-05
-1.98326610670618e-05
-7.21618100504613e-05
-1.94878779833728e-05
-5.89415426948786e-05
-1.90883361154141e-05
-4.60168827850233e-05
-1.86435442459847e-05
-3.34109121648708e-05
-1.81618703288212e-05
-2.11424121462272e-05
-1.76505592801998e-05
-9.22633108651752e-06
-1.71160176993494e-05
2.32569361257908e-06
-1.65636693549092e-05
1.35038412158081e-05
-1.59971639731489e-05
2.43007689068618e-05
-1.54206646263066e-05
3.47116409299625e-05
-1.48373463195347e-05
4.47326107741942e-05
-1.42491305258657e-05
5.43608010424971e-05
-1.36582077025022e-05
6.35940662026903e-05
-1.30656589116927e-05
7.2430657092899e-05
-1.247206870211e-05
8.08689392276405e-05
-1.18776784338482e-05
8.8907113285544e-05
-1.12822823491492e-05
9.6542945624855e-05
-1.06852579383542e-05
0.000103773493324665
-1.00855646672751e-05
0.000110594811863773
-9.48171563131594e-06
0.000117001652664859
-8.87178539496181e-06
0.000122987105180771
-8.25330244320956e-06
0.000128542227137646
-7.62328832050182e-06
0.000133655545784619
-6.97798701555463e-06
0.000138312571941914
-6.31303235576323e-06
0.000142495017890045
-5.62278205837637e-06
0.000146180145253027
-4.9009148719016e-06
0.000149339409248132
-4.1387474679614e-06
0.000151937618842441
-3.32712603357653e-06
0.000153930614251302
-2.4524512277951e-06
0.00015526276746917
-1.50066797337436e-06
0.000155868408184318
-4.55067306494773e-07
0.000155673252208334
6.95077299071357e-07
0.000154567935686439
2.00485896823103e-06
0.000152411033122077
3.5084155072648e-06
0.000149001005366835
5.30852707403236e-06
0.000144096529479451
7.4299837107994e-06
0.000137325306777259
1.01046543863305e-05
0.000128240492144011
1.33431636033453e-05
0.000116067765949161
1.77389461112438e-05
9.96588531817869e-05
2.35209605445482e-05
7.74765656547053e-05
3.19188611957332e-05
6.03729323999558e-05
2.41819442303198e-05
6.07236597176516e-05
-3.01109037548935e-06
6.62816163334787e-05
-8.65013242478399e-06
7.51657719891131e-05
-1.35133843128229e-05
8.56922068666001e-05
-1.57588936694328e-05
9.78805467365456e-05
-1.81852838580708e-05
0.000112116573718132
-2.12079329255255e-05
0.000128689724649336
-2.47827474352635e-05
0.000146212270482185
-2.58836875230734e-05
0.000164291132654411
-2.65534153057733e-05
0.000182318006940209
-2.6227557682285e-05
0.000199350401519161
-2.45378008457921e-05
0.00021292294127746
-1.87690294877308e-05
0.000223707207508813
-1.47515250032936e-05
0.000232798433408625
-1.26172834557115e-05
0.000241204277657956
-1.18929239728492e-05
0.000250657794723459
-1.38433477424416e-05
0.000264899359554265
-2.1523050401511e-05
0.000288757392164226
-3.6580202334633e-05
0.000321310908594782
-4.88066936530614e-05
0.000365093310904481
-6.5073343552175e-05
0.000425575614580139
-9.09598115441958e-05
0.000499534692497166
-0.000109365839166894
0.000553622560912089
-7.02544911875925e-05
0.000512779529407463
9.1589512818218e-05
0.000406585693107852
0.000171512892369631
0.00029827474969392
0.000156944867715243
2.55560682811794e-05
0.000442951941524898
-1.75298372574023e-05
0.00042723597619716
2.65667786350929e-05
0.000298480637411242
0.000298799115823379
7.80081061833458e-05
0.000419098571599
-7.6964955062844e-05
0.000250540529498074
-0.000100693862773036
1.60738423163067e-05
-8.61042492539544e-05
-3.4318033722908e-05
-7.5895818220213e-05
-2.24133117191867e-05
-7.23264193558635e-05
-7.96121548730162e-06
-7.22206916313507e-05
-1.54294174810905e-06
-7.45432440557461e-05
3.24053846215436e-06
-7.90388034927446e-05
7.27220058538165e-06
-8.57183428492324e-05
1.1244637211908e-05
-9.54620873075845e-05
1.70764855209662e-05
-0.000108663018391124
2.40399549811595e-05
-0.000124832014290796
3.0536079133919e-05
-0.000142654316520015
3.44477502761263e-05
-0.000161323052461181
3.70720977873727e-05
-0.000179943177043671
3.80918149859313e-05
-0.000197523622858874
3.68151307697362e-05
-0.000213607445288706
3.39281576233693e-05
-0.000228554404875832
3.20440188931447e-05
-0.000242166748386944
2.98258572835538e-05
-0.000253839260438175
2.53879693984995e-05
-0.000263952861233985
2.09502637558084e-05
-0.000274662684150675
2.02365915941828e-05
-0.000290030126866453
2.71995268372029e-05
-0.000315551329618767
6.62027523287306e-05
-0.000338725261845041
7.15439176646054e-05
-0.000350704377604477
4.20787799713715e-05
-0.000355219536154208
2.13090338683433e-05
-0.000355054154035226
8.48389804035859e-06
-0.000351396602051984
-7.96497858272158e-07
-0.000345065555022569
-7.93428159245006e-06
-0.000336569722491529
-1.36936748508453e-05
-0.000326276053596175
-1.84652794412624e-05
-0.000314471554501881
-2.24734712012386e-05
-0.000301400516946817
-2.58554665666857e-05
-0.000287272091296302
-2.86993112958825e-05
-0.000272271734511215
-3.10658763607729e-05
-0.000256565083179654
-3.30042645036657e-05
-0.000240301309987656
-3.45553801003557e-05
-0.000223614631662606
-3.57566913049623e-05
-0.000206625631736551
-3.66426612050344e-05
-0.000189442136241668
-3.72460295891429e-05
-0.0001721600742166
-3.7597604363169e-05
-0.00015486425471782
-3.77265051853948e-05
-0.000137629165549452
-3.76599322521792e-05
-0.000120519767770247
-3.74231609888614e-05
-0.000103592297944908
-3.70394177809223e-05
-8.68950588082028e-05
-3.6529900203321e-05
-7.04692026402658e-05
-3.59137341500756e-05
-5.43494864784761e-05
-3.52080522756814e-05
-3.85649961184147e-05
-3.44280346047137e-05
-2.31398348160366e-05
-3.35870316291417e-05
-8.09370259792447e-06
-3.2696691497754e-05
6.55737185565059e-06
-3.17670921490041e-05
2.0800384268136e-05
-3.08066817671862e-05
3.46251869503345e-05
-2.98219666531901e-05
4.80238599960097e-05
-2.88193376745473e-05
6.09902103075318e-05
-2.78036966282395e-05
7.35194619677771e-05
-2.67783821882069e-05
8.56077807032202e-05
-2.57465264380187e-05
9.72520109344979e-05
-2.4709889146985e-05
0.000108449352131698
-2.36694099005207e-05
0.000119197042170869
-2.26253684756055e-05
0.000129492063473032
-2.1577303652208e-05
0.000139330849940288
-2.05240444064212e-05
0.000148708985886258
-1.94637006141012e-05
0.000157620888966447
-1.83936187116864e-05
0.000166059467279364
-1.73103637087643e-05
0.000174015734939155
-1.62095701030461e-05
0.000181478375618029
-1.50859290005893e-05
0.000188433222953452
-1.39328343510572e-05
0.000194862650873656
-1.27424602771974e-05
0.00020074480458428
-1.15049357688405e-05
0.000206052687946193
-1.02087982341988e-05
0.000210752943430901
-8.8390029517527e-06
0.00021480440812724
-7.37859073019195e-06
0.000218156156538439
-5.80419963834479e-06
0.000220745144804775
-4.08965624065186e-06
0.000222493922034326
-2.20384453603338e-06
0.000223307340938807
-1.18341606244283e-07
0.000223060533442634
2.25166646473689e-06
0.000221589620640042
4.97932830966534e-06
0.00021867513011484
8.22301760002498e-06
0.000214028749769693
1.20763640555256e-05
0.000207250371584436
1.68830325719427e-05
0.000197781452022794
2.28120831647529e-05
0.000184817804324974
3.07025938096287e-05
0.00016697987076205
4.13588941073633e-05
0.000142552796521636
5.63459354358144e-05
0.000121880005701612
4.48547350496059e-05
0.0001174375512246
1.43136410198081e-06
0.000121339525080756
-1.25521062817492e-05
0.000129827788847783
-2.20016480792011e-05
0.000141070607500268
-2.70017123220047e-05
0.000154691688737775
-3.18063650954958e-05
0.000171017014578579
-3.75332587665148e-05
0.00019023181973438
-4.39975525910078e-05
0.000211221632414789
-4.68735002038977e-05
0.000233331696363269
-4.86634792547338e-05
0.000255918145023643
-4.88140063440698e-05
0.00027788651253877
-4.65061683578914e-05
0.00029694019013277
-3.78227070817142e-05
0.000313044460902015
-3.08557957720058e-05
0.000327120369826687
-2.66931923806975e-05
0.000340282804083876
-2.50553582339045e-05
0.000354299038356903
-2.78595820094053e-05
0.000373094466535633
-4.03184785790066e-05
0.000401924987412808
-6.54107232103653e-05
0.00044126421118742
-8.81459174259197e-05
0.000493273076928952
-0.000117082209293639
0.000562067912805541
-0.000159754647420106
0.000645803170636891
-0.000193101096997112
0.00071787230366759
-0.00014232362421812
0.000711669175248652
9.77926412374537e-05
0.000625515422183646
0.000257666645442406
0.000510247472240147
0.000272212817698832
8.417555241145e-05
0.000557456203032729
5.63382825806848e-06
0.000538394662281914
4.56283193800778e-05
0.000419906978928079
0.00041728679919229
0.000172410250190298
0.000666595300309618
-4.774037489243e-05
0.000470691154581058
-0.000112686191224675
8.1019658656528e-05
-0.000105146819647999
-4.18574052991784e-05
-9.60206072927851e-05
-3.15395240727362e-05
-9.3326290464573e-05
-1.06555323187196e-05
-9.46765271465322e-05
-1.92705065443391e-07
-9.8809290434924e-05
7.37330175076004e-06
-0.000105506639837222
1.3969549988516e-05
-0.000114754609383642
2.04926067571936e-05
-0.000127312704317881
2.96345804561537e-05
-0.000143233647175755
3.9960897838965e-05
-0.000161606462313983
4.89088942724053e-05
-0.000180977056842767
5.38183448048067e-05
-0.00020049283020839
5.65878711532953e-05
-0.000219369353033082
5.69683378104534e-05
-0.000236909664084803
5.43554418215595e-05
-0.000252990614103554
5.00091076420292e-05
-0.000267978437717428
4.70318425069402e-05
-0.000281689227555009
4.35366471209982e-05
-0.000293765039502492
3.74637813459003e-05
-0.000304714762430829
3.189998668406e-05
-0.000316311538348677
3.18333675120104e-05
-0.000331982883437899
4.2870871926269e-05
-0.000353943003468981
8.81628723599057e-05
-0.000372111064945125
8.97119791406573e-05
-0.000380749509719709
5.07172247460583e-05
-0.000382956818359086
2.35163425077267e-05
-0.000380853153466412
6.38023314769467e-06
-0.000375426698628806
-6.22295269596676e-06
-0.000367405598628743
-1.59553815925615e-05
-0.000357249367804015
-2.38499056757468e-05
-0.000345313896853333
-3.04007503918322e-05
-0.000331877104672682
-3.59102633819218e-05
-0.000317178808388745
-4.05537628504491e-05
-0.000301426250297104
-4.4451869387634e-05
-0.000284804530997747
-4.76875956600523e-05
-0.000267479747844675
-5.03290476568253e-05
-0.000249602003715219
-5.24331242297034e-05
-0.000231306724755464
-5.40519702649671e-05
-0.000212715838468348
-5.52335474921464e-05
-0.000193938583516492
-5.60232845411313e-05
-0.000175072305579035
-5.64638823004575e-05
-0.000156203205389619
-5.65956053750046e-05
-0.000137407107858658
-5.64560297829272e-05
-0.000118750243387302
-5.60800254604998e-05
-0.000100290037518486
-5.54996236495205e-05
-8.20758981274124e-05
-5.47440395944334e-05
-6.41499950349894e-05
-5.38396372422069e-05
-4.65480177366581e-05
-5.28100295735957e-05
-2.9299900450363e-05
-5.16761518907036e-05
-1.24305028073738e-05
-5.04564292715243e-05
4.03973961042783e-06
-4.91669339156643e-05
2.00940995396657e-05
-4.7821452076773e-05
3.57191019896519e-05
-4.64316842173565e-05
5.09041306310154e-05
-4.5006995293692e-05
6.56407310957801e-05
-4.35559381405116e-05
7.99222507889285e-05
-4.20852163201374e-05
9.37434863713649e-05
-4.05996177715289e-05
0.000107100197145121
-3.91032372115899e-05
0.000119988822474736
-3.75985144781082e-05
0.000132406158903279
-3.60867463292966e-05
0.000144349030262753
-3.45682398359647e-05
0.000155813985366298
-3.30422587558949e-05
0.000166796994544795
-3.1507053585054e-05
0.00017729313845698
-2.99598445264821e-05
0.000187296282093667
-2.83967623482633e-05
0.000196798718899119
-2.68128005144568e-05
0.000205790779452154
-2.52016306559185e-05
0.000214260376394173
-2.35555259430274e-05
0.000222192484764038
-2.18649427207771e-05
0.000229568500078658
-2.01184755923045e-05
0.000236365490899823
-1.83019265897862e-05
0.000242555217695338
-1.63985250298175e-05
0.000248102996942241
-1.43867821981304e-05
0.00025296609534579
-1.22416891337977e-05
0.000257091942170074
-9.93004646224476e-06
0.000260415754275594
-7.41346834658971e-06
0.000262855724780821
-4.64381504119747e-06
0.000264310830934907
-1.5734477607378e-06
0.000264654397037931
1.90810036191393e-06
0.000263719514878266
5.9142104692676e-06
0.00026128979251493
1.06527399637585e-05
0.000257073976750061
1.6292179820191e-05
0.000250685767966457
2.32712413557412e-05
0.00024156755542025
3.19302957109132e-05
0.00022897758048792
4.32925687422302e-05
0.000211664730520534
5.8671744074762e-05
0.000187950340683295
8.00603252730219e-05
0.000166536986161143
6.6268089571453e-05
0.000159089525100887
8.87882516248674e-06
0.000161005244322974
-1.44678255041875e-05
0.000168301782709802
-2.92981864656958e-05
0.0001791294462051
-3.78293758173502e-05
0.000192827333532661
-4.55042524230372e-05
0.000209589785732049
-5.42957109659787e-05
0.000229496519873662
-6.39042867325943e-05
0.000251600849864787
-6.89778301951782e-05
0.000275145352660632
-7.22079820507561e-05
0.000299467555002919
-7.31362086871131e-05
0.000323437483725652
-7.04760970793388e-05
0.000344997889865117
-5.93831132212621e-05
0.000363803131147351
-4.96610370540658e-05
0.000380634087879466
-4.35241491128837e-05
0.000396581084749312
-4.10023551058412e-05
0.000413326122816178
-4.4604620073834e-05
0.000434579380707271
-6.15717364700587e-05
0.000465394623342043
-9.62259658449938e-05
0.000507012421050191
-0.000129763715133921
0.000561299945174846
-0.000171369733418522
0.000631312110753893
-0.000229766812999203
0.000715743853367216
-0.00027753283961063
0.0007921597335412
-0.000218739504392271
0.000806841558547685
8.31108162301432e-05
0.000747799670982925
0.000316708533009639
0.000648397958961986
0.000371614529739793
0.000151953642811028
0.000641496508911696
3.53057457087623e-05
0.000620211457136121
6.6913371152203e-05
0.000516929599110925
0.000520568657228471
0.000269787661669251
0.000913737237733216
4.35611356137575e-06
0.000736122702687114
-0.000107235674668399
0.000192611446891238
-0.000113888387608794
-3.52046923590331e-05
-0.000107751403155614
-3.7676508524893e-05
-0.000106591474772322
-1.18154607039859e-05
-0.000109647307069657
2.86312723213554e-06
-0.000115494994285106
1.32209889662189e-05
-0.000123928627497852
2.24031832014822e-05
-0.000134864320902238
3.14283001606946e-05
-0.000148877222904704
4.3647482459069e-05
-0.000165809828356721
5.68935032911733e-05
-0.000184658797762823
6.77578636790031e-05
-0.000204150895882051
7.3310442924288e-05
-0.000223587369432794
7.60243447045333e-05
-0.000242349907072493
7.57308754502875e-05
-0.00025991616396011
7.19216987094264e-05
-0.000276251603039832
6.63445467217622e-05
-0.000291617747406014
6.23979868731153e-05
-0.000305792927816557
5.77118275314698e-05
-0.000318503499162902
5.0174352692182e-05
-0.000330211807788522
4.36082953096251e-05
-0.000342267853536821
4.38894132602908e-05
-0.00035745011297955
5.80531313689102e-05
-0.000376619201198252
0.00010733196057868
-0.000391611481270035
0.00010470425921244
-0.000398301978073025
5.74077215491698e-05
-0.000399177328554254
2.43916929890164e-05
-0.000395930197860696
3.13310245422108e-06
-0.000389434300954502
-1.27188496021552e-05
-0.000380362241467454
-2.50274410795599e-05
-0.000369151552716537
-3.50605944266961e-05
-0.000356150372905116
-4.34019302031139e-05
-0.000341634374273731
-5.04262620132856e-05
-0.000325842939854693
-5.63451972692749e-05
-0.000308984468090874
-6.13103411514439e-05
-0.000291245930439889
-6.54261333108902e-05
-0.000272795659867303
-6.87793182293948e-05
-0.000253786124377385
-7.14426597194587e-05
-0.0002343551426316
-7.34829520108237e-05
-0.000214626975746797
-7.49617143768493e-05
-0.000194713100907636
-7.59371593803005e-05
-0.000174712973783308
-7.64640094245498e-05
-0.000154714763670896
-7.65938154874243e-05
-0.000134796111798021
-7.63746816555244e-05
-0.000115024911019084
-7.58512262394693e-05
-9.54600958520433e-05
-7.50644388162403e-05
-7.61524349492903e-05
-7.40517004970139e-05
-5.71453166336804e-05
-7.28467555573838e-05
-3.84755156083258e-05
-7.14798305984683e-05
-2.01739264487587e-05
-6.99777410498094e-05
-2.26624801069791e-06
-6.83641077089614e-05
1.5226282332345e-05
-6.66594642584687e-05
3.22863103849055e-05
-6.48814801282338e-05
4.88998542681492e-05
-6.30452281005074e-05
6.50557750344918e-05
-6.11629160594355e-05
8.07451871991139e-05
-5.92453503058018e-05
9.59610464629818e-05
-5.73010755832883e-05
0.000110697792098243
-5.53363634074096e-05
0.000124950869747908
-5.33563148613347e-05
0.000138716425729786
-5.13640704611221e-05
0.000151990977162166
-4.9361297762102e-05
0.000164771073891302
-4.73483365658889e-05
0.000177052987743458
-4.53241726084143e-05
0.000188832400370124
-4.32864662120339e-05
0.000200104083900485
-4.12315280571954e-05
0.000210861567283654
-3.91542457315676e-05
0.000221096771782874
-3.7048005014033e-05
0.000230799613113346
-3.49044719864806e-05
0.000239957536561909
-3.27134493920195e-05
0.000248554993886322
-3.04624000452793e-05
0.000256572788524006
-2.81362702304456e-05
0.000263987334051368
-2.57164721171476e-05
0.000270769651562561
-2.31808425412052e-05
0.000276884264881008
-2.05013955163514e-05
0.000282287552791704
-1.76449770446156e-05
0.000286926015393434
-1.45685090638237e-05
0.000290733801945592
-1.12212548990878e-05
0.000293627872489409
-7.53788558509243e-06
0.000295503281804065
-3.44885707572815e-06
0.00029623161328639
1.1797688796345e-06
0.00029564690996131
6.49891379421896e-06
0.000293536226939649
1.27634229856121e-05
0.000289612071769417
2.02163349902452e-05
0.000283501916368706
2.93813967565473e-05
0.000274668602855451
4.07636092240753e-05
0.000262423902583431
5.5537269014367e-05
0.000245671580731065
7.5424065927074e-05
0.000222885380941972
0.000102846525062028
0.000201527364220929
8.76261062922499e-05
0.000192396967682123
1.80092217013993e-05
0.000192789450417395
-1.48603082397172e-05
0.000199057673551307
-3.55664095994196e-05
0.000209392957043126
-4.81646593092408e-05
0.000222970049477527
-5.90813448574642e-05
0.000239866091732364
-7.1191753220914e-05
0.000260068366808137
-8.41065618083606e-05
0.000282701182619184
-9.16106460063186e-05
0.000306961538006315
-9.64683374379849e-05
0.000332154575439733
-9.83292461209461e-05
0.000357120739034547
-9.54422606732581e-05
0.000379958649386385
-8.22210235729818e-05
0.0004002111201129
-6.99135077802811e-05
0.000418577047449124
-6.18900764488618e-05
0.000436117780841833
-5.85430884995688e-05
0.000454481509975296
-6.29683492054218e-05
0.000477223567545565
-8.43137940400689e-05
0.000509159498422805
-0.000128161896721933
0.000551903810809056
-0.000172508027520097
0.00060722496718395
-0.000226690889793218
0.000677527751980863
-0.000300069597795623
0.000761371216922138
-0.000361376304551989
0.000837722832486497
-0.000295091119956426
0.000861087727225733
5.97459214908525e-05
0.000819149125127191
0.000358647135110534
0.000736863028638824
0.000453900626242701
0.000217648245078705
0.000708140709229172
6.66642340475702e-05
0.000685713511444128
8.93405689344624e-05
0.000597058798430373
0.000609223370248564
0.000362939331828047
0.00114785670432205
6.86692652931167e-05
0.00103039276922325
-8.91999161462726e-05
0.000350480628334055
-0.000115876719771384
-8.52788873412538e-06
-0.000113813080575693
-3.97401477195813e-05
-0.000114127726832121
-1.15008144490442e-05
-0.000118656839220999
7.39223962119542e-06
-0.000125922773646182
2.04869233915567e-05
-0.000135690834732316
3.21712442878905e-05
-0.000147811011046848
4.35484764744663e-05
-0.00016272472691853
5.85611983308698e-05
-0.000180205234875975
7.43740112486e-05
-0.000199307895796699
8.68605246000713e-05
-0.000218958807363348
9.29613544911767e-05
-0.000238569953007021
9.56354903486622e-05
-0.000257607983348481
9.47689057918912e-05
-0.000275613238113677
8.99269534747941e-05
-0.000292537833725508
8.32691423335523e-05
-0.000308540813360576
7.84009665081074e-05
-0.000323371178063934
7.25421922346853e-05
-0.000336782743235484
6.35859178635844e-05
-0.000349153304662216
5.59788567362177e-05
-0.00036149343892867
5.62295475266249e-05
-0.00037604780455798
7.26074969980496e-05
-0.000393044380635233
0.000124328536655888
-0.000405764289696659
0.000117424168273777
-0.000411080021343534
6.27234531960341e-05
-0.000410999855559459
2.43115272048988e-05
-0.000406911478172802
-9.55274932447405e-07
-0.000399611044727529
-2.00192830474893e-05
-0.000389729486445976
-3.49089993611321e-05
-0.000377690082157745
-4.70999987150148e-05
-0.000363836670095866
-5.72553422649535e-05
-0.000348445333769266
-6.58175983399527e-05
-0.000331756913991076
-7.30336170473968e-05
-0.000313982362528863
-7.90848926137437e-05
-0.000295311546099637
-8.40969497400785e-05
-0.00027591584341005
-8.81750209190715e-05
-0.000255950737306754
-9.14077658227148e-05
-0.000235556968532232
-9.38767207855144e-05
-0.000214861569004655
-9.56571139044171e-05
-0.000193978614457087
-9.68201139279716e-05
-0.000173009968461511
-9.74326554200398e-05
-0.00015204601326767
-9.75577706813774e-05
-0.000131166406405352
-9.72542885177571e-05
-0.00011044086479155
-9.65767678534261e-05
-8.9929961355365e-05
-9.55753422523547e-05
-6.96859272145875e-05
-9.42957346378868e-05
-4.97534476856167e-05
-9.27792350862949e-05
-3.01704411210747e-05
-9.10628371629412e-05
-1.09687982197032e-05
-8.9179383951133e-05
7.82487620940417e-06
-8.71577821379357e-05
2.61885847802518e-05
-8.50231728293977e-05
4.41043540043998e-05
-8.27972493519475e-05
6.15576401168206e-05
-8.04985142130505e-05
7.85368116574101e-05
-7.8142087599754e-05
9.50325628672495e-05
-7.57411015160674e-05
0.000111037483340082
-7.33059960556926e-05
0.000126545685344216
-7.08445654118584e-05
0.000141552332100253
-6.83629616172646e-05
0.000156053313771008
-6.58650521323475e-05
0.000170044908167703
-6.33528921588309e-05
0.000183523435606792
-6.08268640052279e-05
0.000196484939593807
-5.82856765954324e-05
0.000208924866352793
-5.57263929709987e-05
0.000220837737664791
-5.31443993692451e-05
0.000232216809606953
-5.05333176736292e-05
0.000243053700381721
-4.78848957888642e-05
0.000253337985404553
-4.51887570092092e-05
0.000263056724737236
-4.24321887248499e-05
0.000272193934292802
-3.95996096007751e-05
0.000280729923270575
-3.66722592084061e-05
0.00028864055105576
-3.36270999022275e-05
0.000295896216579082
-3.04365080645759e-05
0.000302460762519618
-2.70659414566596e-05
0.000308289820568134
-2.34740350931588e-05
0.000313329093765404
-1.96077822609512e-05
0.000317511783656774
-1.54039447906317e-05
0.000320754196486731
-1.07802984150293e-05
0.000322949643009492
-5.64430359867828e-06
0.000323968201654862
1.61210234335089e-07
0.000323644346368875
6.82276908013907e-06
0.000321768064423616
1.46397049310103e-05