5 	0.00391112967796274 	3.46944695195361e-18 	1.12914925975822 	0.000114572453789524 	441.230190346851
5 	0.0118766651674915 	6.93889390390723e-18 	1.12914230719883 	0.0010462683229967 	127.825721555897
5 	0.020134001548576 	0 	1.12912104428565 	0.00367472182935145 	32.6198146066991
5 	0.0286938283423949 	-6.93889390390723e-18 	1.12907271288951 	0.00660865909592665 	14.9888242661254
5 	0.0375672266585909 	1.73472347597681e-18 	1.12899464650429 	0.00903230404925198 	9.42582874560813
5 	0.0467656835403033 	1.04083408558608e-17 	1.1288958098275 	0.0110149672963692 	6.93422196918965
5 	0.0563011068347008 	1.04083408558608e-17 	1.12878359670951 	0.0127177402650928 	5.54340844830777
5 	0.0661858406082649 	3.46944695195361e-18 	1.12866144203671 	0.014238988906104 	4.6591865366215
5 	0.0764326811267816 	5.20417042793042e-18 	1.12853134748973 	0.0156363621104921 	4.04915957497672
5 	0.0870548934207257 	1.21430643318376e-17 	1.12839496364124 	0.0169458864153159 	3.60457834678443
5 	0.0980662284574838 	1.21430643318376e-17 	1.12825371639349 	0.0181916026056185 	3.26784402080363
5 	0.109480940942647 	1.04083408558608e-17 	1.1281088559851 	0.0193904634028862 	3.00559913498057
5 	0.121313807773416 	1.04083408558608e-17 	1.1279615201465 	0.0205549788603449 	2.79718534218625
5 	0.13358014716801 	1.04083408558608e-17 	1.12781277364429 	0.0216947346716113 	2.62912667779007
5 	0.146295838495839 	8.67361737988404e-18 	1.12766362802235 	0.0228173099469546 	2.49226270734424
5 	0.159477342834115 	8.67361737988404e-18 	1.12751505185137 	0.0239288556971696 	2.38015620553479
5 	0.173141724277517 	1.21430643318376e-17 	1.127367975764 	0.025034471247628 	2.28815946921003
5 	0.18730667202848 	1.21430643318376e-17 	1.12722329399144 	0.0261384543522296 	2.21284159423371
5 	0.201990523296728 	1.21430643318376e-17 	1.12708186354297 	0.0272444686148956 	2.15162350622012
5 	0.217212287037675 	1.56125112837913e-17 	1.12694450186582 	0.0283556541399005 	2.10253760928327
5 	0.232991668560441 	2.25514051876985e-17 	1.12681198358598 	0.0294746971585772 	2.06406485915155
5 	0.249349095037321 	3.12250225675825e-17 	1.12668503677722 	0.0306038682778905 	2.03502140108639
5 	0.266305741947753 	3.46944695195361e-17 	1.12656433913566 	0.0317450351886384 	2.01447774853811
5 	0.283883560490998 	2.60208521396521e-17 	1.12645051451418 	0.032899653203961 	2.00169977078638
5 	0.30210530600303 	1.73472347597681e-17 	1.12634413010807 	0.0340687353452354 	1.99610452634077
5 	0.320994567414413 	2.25514051876985e-17 	1.12624569258857 	0.0352528025782143 	1.99722629823632
5 	0.340575797787321 	2.42861286636753e-17 	1.12615564631187 	0.0364518142172731 	2.00468965754073
5 	0.360874345971201 	2.60208521396521e-17 	1.12607437571477 	0.0376650766731925 	2.01818722255645
5 	0.38191648941809 	2.42861286636753e-17 	1.12600220157249 	0.0388911311471651 	2.03746058912259
5 	0.403729468200045 	1.73472347597681e-17 	1.12593938060881 	0.0401276182066432 	2.06228309569142
5 	0.426341520272733 	2.08166817117217e-17 	1.1258861065276 	0.0413711185168119 	2.09244343232592
5 	0.449781918030829 	1.90819582357449e-17 	1.12584255179157 	0.0426169693778942 	2.12772924855959
4.99999999999999 	0.474081006202548 	1.56125112837913e-17 	1.12580890902864 	0.043859057952815 	2.16791001854972
5 	0.499270241132363 	1.56125112837913e-17 	1.12578476017593 	0.0450895924786405 	2.21271841440195
5 	0.525382231502762 	1.56125112837913e-17 	1.12576771303017 	0.0462988497409309 	2.26182933600711
5 	0.552450780547767 	2.25514051876985e-17 	1.12576216552472 	0.0474750823062337 	2.31484574190174
5 	0.580510929812849 	3.20923843055709e-17 	1.12581173351288 	0.0486062565559999 	2.37137188693908
5 	0.60959900451791 	3.98986399474666e-17 	1.1259408327228 	0.0496839327673705 	2.43112930315901
5 	0.639752660582032 	3.90312782094782e-17 	1.12609727307748 	0.0506864495563366 	2.49246035023202
5 	0.671010933370886 	3.72965547335014e-17 	1.12623184439101 	0.0515557190326322 	2.55118113353602
4.99999999999999 	0.7034142882299 	3.29597460435593e-17 	1.12633510284075 	0.0522221402254194 	2.60210996716679
4.99999999999999 	0.737004672868605 	2.68882138776405e-17 	1.1264144881329 	0.0526242967916503 	2.64050165461024
4.99999999999999 	0.771825571663975 	3.12250225675825e-17 	1.1264787824327 	0.0527159989688941 	2.66270508155067
4.99999999999999 	0.807922061953053 	2.68882138776405e-17 	1.12653241054825 	0.0524651882315824 	2.66625100283949
4.99999999999999 	0.845340872387742 	1.21430643318376e-17 	1.12657449300341 	0.0518517869621198 	2.64976266083282
5 	0.884130443427308 	1.30104260698261e-18 	1.12660028398784 	0.0508684721244905 	2.61281685917842
5 	0.924340990046897 	3.90312782094782e-18 	1.12660327780209 	0.0495245093996286 	2.55578172777061
5 	0.966024566743241 	6.93889390390723e-18 	1.12657682927253 	0.0478504902013206 	2.47972083912575
5 	1.00923513492173 	6.50521303491303e-18 	1.1265149456318 	0.0459009961004842 	2.38641898273596
5 	1.05402863275205 	1.2793585635329e-17 	1.12641246226406 	0.043752623110052 	2.27846708075088
5 	1.10046304758287 	1.99493199737333e-17 	1.12626497346976 	0.0414962577348096 	2.15926536820944
5 	1.14859849100923 	2.71050543121376e-17 	1.12606888983035 	0.0392247604794946 	2.03283498315962
5 	1.19849727668994 	2.82976767018717e-17 	1.12582203775722 	0.0370215743372847 	1.90384573348296
5 	1.25022400101563 	2.35271871429354e-17 	1.12552395820396 	0.0349535545788199 	1.777790788679
5 	1.30384562673185 	2.42861286636753e-17 	1.12517498360837 	0.03305156152971 	1.6573568466349
5 	1.35943156962565 	3.12250225675825e-17 	1.12477824857989 	0.0313110723165931 	1.54284210565641
5 	1.41705378838762 	3.12250225675825e-17 	1.12433795766595 	0.0297163425521896 	1.43495846992526
5 	1.47678687776592 	2.08166817117217e-17 	1.12385752606474 	0.0282434791467783 	1.33437397260552
5 	1.53870816513277 	1.73472347597681e-17 	1.12334480501719 	0.0268607834221193 	1.2404805492325
5 	1.60289781058851 	2.08166817117217e-17 	1.12283743395204 	0.0255240444614441 	1.1500431828381
5 	1.66943891073266 	2.08166817117217e-17 	1.12232615754647 	0.02420500750751 	1.06258385972757
5 	1.73841760623657 	2.42861286636753e-17 	1.12177912898426 	0.0228966984907939 	0.982048305615095
5 	1.80992319335659 	3.46944695195361e-17 	1.12120195873926 	0.0215910004987304 	0.911239982508578
5 	1.88404823953248 	4.5102810375397e-17 	1.12059766594427 	0.0202736393511643 	0.84992348280648
5 	1.96088870322037 	5.20417042793042e-17 	1.11997592590198 	0.0189559604050816 	0.797672702707894
5 	2.02024009608345 	5.55111512312578e-17 	1.11949757462793 	0.0179337063685742 	0.763208673845111
5 	2.06000503604194 	0 	1.11916341817189 	0.0172269131397025 	0.741911317332527
5 	2.09836474743796 	0 	1.11885367408098 	0.0165730389839006 	0.724339429585422
5 	2.13536888877258 	-3.46944695195361e-18 	1.11855595816215 	0.0159471891303039 	0.709473837145914
5 	2.17106536369585 	-6.93889390390723e-18 	1.11827054205243 	0.0153487327909514 	0.697151835947519
5 	2.20550038302044 	-6.93889390390723e-18 	1.117997084738 	0.0147770526661723 	0.687251418465637
5 	2.23871852454378 	-6.93889390390723e-18 	1.11773521094597 	0.0142315024907541 	0.67968298123237
5 	2.27076279075613 	-6.93889390390723e-18 	1.11748456462994 	0.0137113925463168 	0.674384167442807
5 	2.3016746645094 	-6.93889390390723e-18 	1.11724479479966 	0.0132159912071627 	0.671316720975402
5 	2.33149416271872 	0 	1.11701555900593 	0.0127445353850303 	0.670464731080476
5 	2.36025988816626 	6.93889390390723e-18 	1.11679652719251 	0.0122962453048755 	0.671833862226405
5 	2.38800907947441 	0 	1.11658738319926 	0.0118703407378898 	0.675451311383889
5 	2.41477765931295 	-6.93889390390723e-18 	1.11638782502167 	0.0114660569816587 	0.681366336969121
5 	2.44060028090272 	-3.46944695195361e-18 	1.11619756427367 	0.0110826596472617 	0.689651273031111
5 	2.46551037287586 	-6.93889390390723e-18 	1.1160163250737 	0.0107194578041208 	0.70040298941836
5 	2.48954018255081 	-1.38777878078145e-17 	1.11584384254677 	0.0103758153310225 	0.713744790902799
5 	2.512720817678 	-6.93889390390723e-18 	1.1156798611009 	0.0100511604869364 	0.729828770509394
5 	2.53508228671037 	-6.93889390390723e-18 	1.11552413260244 	0.00974499379120627 	0.748838647833749
5 	2.55665353765073 	-1.38777878078145e-17 	1.11537641454627 	0.00945689431941451 	0.770993133929145
5 	2.57746249552636 	-6.93889390390723e-18 	1.11523646829365 	0.00918652449925379 	0.796549871498532
5 	2.59753609853934 	0 	1.11510405743105 	0.00893363344408053 	0.825810003044333
5 	2.61690033293929 	0 	1.11497894628789 	0.00869805880025727 	0.859123420200687
5 	2.63558026666389 	3.46944695195361e-18 	1.11486089863811 	0.00847972701529615 	0.896894744202948
5 	2.65360008179049 	6.93889390390723e-18 	1.11474967660189 	0.00827865186352198 	0.939590079575986
5 	2.67098310584102 	1.04083408558608e-17 	1.11464503975713 	0.00809493100075532 	0.987744569760808
5 	2.68775184198056 	1.38777878078145e-17 	1.1145467444672 	0.0079287402661783 	1.04197076372792
5 	2.70392799814879 	1.04083408558608e-17 	1.11445454342975 	0.0077803254156078 	1.10296777615783
5 	2.71953251516198 	1.38777878078145e-17 	1.11436818545227 	0.00764999096377997 	1.17153119071741
5 	2.73458559382185 	2.08166817117217e-17 	1.11428741546078 	0.00753808584145573 	1.24856361775699
5 	2.74910672106653 	2.42861286636753e-17 	1.11421197474929 	0.00744498564206876 	1.33508577774741
5 	2.76311469519732 	2.42861286636753e-17 	1.11414160147671 	0.00737107134514563 	1.43224794619046
5 	2.776627650214 	1.38777878078145e-17 	1.11407603141535 	0.00731670455861134 	1.54134157496561
5 	2.78966307929018 	6.93889390390723e-18 	1.1140149989488 	0.00728219951373831 	1.66381091539151
5 	2.80223785741904 	6.93889390390723e-18 	1.11395823830812 	0.007267792265753 	1.80126453394827
5 	2.81436826325886 	6.93889390390723e-18 	1.11390548502362 	0.00727360778941697 	1.95548676711739
5 	2.82607000020647 	6.93889390390723e-18 	1.11385647755792 	0.00729962590318681 	2.12844945342822
5 	2.83735821672613 	1.04083408558608e-17 	1.11381095907647 	0.00734564720349003 	2.32232476599875
5 	2.8482475259599 	1.38777878078145e-17 	1.11376867929504 	0.0074112604463632 	2.53950071157705
5 	2.85875202464506 	1.38777878078145e-17 	1.11372939627402 	0.00749581309626022 	2.78260192372631
5 	2.86888531136304 	1.38777878078145e-17 	1.11369287805808 	0.00759838711855549 	3.05451980986722
5 	2.87866050414343 	1.73472347597681e-17 	1.11365890514428 	0.00771778262289621 	3.35845797347666
5 	2.88809025744591 	2.08166817117217e-17 	1.11362727525548 	0.00785251285692136 	3.69800129350168
5 	2.89718677854204 	2.42861286636753e-17 	1.11359779177024 	0.0080008154988257 	4.07722107649555
5 	2.90596184331818 	2.77555756156289e-17 	1.11357019768358 	0.00816068649614623 	4.50088819465153
5 	2.91442681151997 	3.12250225675825e-17 	1.1135442666548 	0.00832992566847031 	4.97530941295637
5 	2.922592641458 	3.81639164714898e-17 	1.11351964453459 	0.00850601000189899 	5.51039461339457
5 	2.93046990419394 	3.46944695195361e-17 	1.11349642551033 	0.00868543799835822 	6.11641526384351
5 	2.93806879722526 	2.77555756156289e-17 	1.11347499058304 	0.00886142200087962 	6.79969114709194
5 	2.94539915768638 	2.77555756156289e-17 	1.113455217421 	0.00902568922643176 	7.56581027099651
5 	2.95247047508334 	2.77555756156289e-17 	1.1134368342419 	0.00916980991305823 	8.42299437263704
5 	2.9592919035784 	2.77555756156289e-17 	1.11341963484211 	0.00928570803248324 	9.38500320672504
5 	2.96587227384055 	2.77555756156289e-17 	1.1134035000139 	0.00936561330267333 	10.4741110702215
5 	2.97222010447726 	2.77555756156289e-17 	1.11338837399082 	0.00940165024917211 	11.724946481347
5 	2.97834361306218 	2.77555756156289e-17 	1.11337424690024 	0.00938511388689263 	13.1903045473744
5 	2.98425072677325 	2.77555756156289e-17 	1.11336114818786 	0.00930531899025672 	14.9507073378421
5 	2.98994909265477 	2.77555756156289e-17 	1.11334914607522 	0.00914771153239844 	17.1310858516217
5 	2.99544608751689 	2.77555756156289e-17 	1.11333834778574 	0.00889061531263719 	19.9321844396503
5 	3.00074882748522 	2.42861286636753e-17 	1.11332889544457 	0.00849967943295462 	23.6862277244667
5 	3.00586417721304 	2.08166817117217e-17 	1.11332094786284 	0.00791830613331226 	28.9753986200988
5 	3.01079875876789 	1.73472347597681e-17 	1.11331463293083 	0.00705232089594562 	36.9037059807784
5 	3.01555896020418 	2.08166817117217e-17 	1.11330999552946 	0.00575171553011411 	49.8321001021557
5 	3.02015094383281 	2.08166817117217e-17 	1.11330705778754 	0.00384413684770265 	74.0902441210047
5 	3.02458065419861 	1.38777878078145e-17 	1.11330550192024 	0.00161904788041215 	135.941837488319
5 	3.02885382577582 	1.38777878078145e-17 	1.11330469734699 	0.000320640009017827 	432.0252698976
5 	3.03297599039165 	1.21430643318376e-17 	1.11330428901571 	2.46041506386967e-05 	1716.37666084149
