1.00000000000453e-06 	1.00195556483898 	0 	0.0654639181247171 	-0.000107936660829245 	-1.59833362474706e-22
1.00000000000453e-06 	1.00593833258374 	0 	0.21338152376051 	0.000224572947260329 	-2.82102852140742e-22
1.00000000000453e-06 	1.01006700077429 	0 	0.372390372530006 	0.00181161161864489 	-1.54661674511185e-22
1.00000000000453e-06 	1.0143469141712 	0 	0.502351763409967 	0.00437529791166721 	5.75939770966909e-23
1.00000000000453e-06 	1.01878361332929 	0 	0.588713992133501 	0.00719982124837389 	4.76557126700481e-23
1.00000000000453e-06 	1.02338284177015 	-3.46944695195361e-18 	0.641984086422758 	0.00992312065634003 	-8.45684968106838e-23
1.00000000000453e-06 	1.02815055341735 	-6.93889390390723e-18 	0.675428538134294 	0.0124403647098731 	-2.54432968589052e-24
1.00000000000453e-06 	1.03309292030413 	-6.93889390390723e-18 	0.697633538021499 	0.0147404285279518 	7.94693910571759e-23
1.00000000000453e-06 	1.03821634056339 	-6.93889390390723e-18 	0.713418728881965 	0.0168537454523868 	9.60016269531315e-24
1.00000000000453e-06 	1.04352744671036 	-1.04083408558608e-17 	0.72539867310405 	0.0188152557283157 	-8.55196206382666e-23
1.00000000000453e-06 	1.04903311422874 	-1.04083408558608e-17 	0.735018854573411 	0.0206543969274193 	-8.06302027430213e-23
1.00000000000453e-06 	1.05474047047132 	-6.93889390390723e-18 	0.743112641075806 	0.0223944549579999 	-2.52456072910488e-23
1.00000000000453e-06 	1.06065690388671 	-3.46944695195361e-18 	0.750183501190216 	0.0240534557320729 	3.12534349359334e-23
1.00000000000453e-06 	1.06679007358401 	-3.46944695195361e-18 	0.756549290461583 	0.0256452414191736 	6.25094821569401e-23
1.00000000000453e-06 	1.07314791924792 	-6.93889390390723e-18 	0.762418703196394 	0.0271804134517747 	4.50636376638601e-23
1.00000000000453e-06 	1.07973867141705 	-3.46944695195361e-18 	0.767933564212391 	0.0286670578262419 	6.76215435967929e-16
1.00000000000453e-06 	1.08657086213875 	0 	0.773193239892314 	0.0301112779139118 	7.22581716924313e-16
1.00000000000453e-06 	1.09365333601424 	0 	0.778269290262682 	0.0315175837698287 	-5.83452813145348e-16
1.00000000000453e-06 	1.10099526164836 	3.46944695195361e-18 	0.783214577947944 	0.0328891778962032 	-6.2981910455666e-16
1.00000000000453e-06 	1.10860614351884 	6.93889390390723e-18 	0.788069116332297 	0.0342281674118923 	-1.72878530424899e-23
1.00000000000453e-06 	1.11649583428022 	3.46944695195361e-18 	0.792863939197519 	0.0355357268121875 	-5.88965485350229e-23
1.00000000000453e-06 	1.12467454751866 	6.93889390390723e-18 	0.797623732752928 	0.0368122287059939 	-3.97007485943257e-23
1.00000000000453e-06 	1.13315287097387 	1.73472347597681e-17 	0.802368670018721 	0.038057353706708 	1.7610641920618e-23
1.00000000000453e-06 	1.1419417802455 	2.08166817117217e-17 	0.807115716388598 	0.0392701869812315 	2.63468711803675e-24
1.00000000000453e-06 	1.15105265300152 	1.38777878078145e-17 	0.811879574870541 	0.0404493064736825 	-4.82079137106958e-23
1.00000000000453e-06 	1.1604972837072 	1.04083408558608e-17 	0.816673378986368 	0.0415928660571122 	-4.93319176335902e-23
1.00000000000453e-06 	1.17028789889366 	1.38777878078145e-17 	0.82150920387233 	0.0426986756391712 	-1.68163835124736e-23
1.00000000000453e-06 	1.1804371729856 	1.73472347597681e-17 	0.82639844241555 	0.0437642792995775 	0
1.00000000000453e-06 	1.19095824470904 	2.42861286636753e-17 	0.831352078001434 	0.044787031709937 	-2.97687782527308e-23
1.00000000000453e-06 	1.20186473410003 	2.42861286636753e-17 	0.836380875554164 	0.0457641722643833 	-5.95375250163223e-23
1.00000000000453e-06 	1.21317076013637 	2.08166817117217e-17 	0.841495506249122 	0.0466928955157153 	-2.97687467368061e-23
1.00000000000453e-06 	1.22489095901542 	2.08166817117217e-17 	0.846706617576751 	0.0475704158342118 	0
1.00000000000453e-06 	1.23704050310128 	2.08166817117217e-17 	0.852024856483408 	0.0483940254766095 	-1.43652191240153e-24
1.00000000000453e-06 	1.24963512056619 	2.42861286636753e-17 	0.857460845952144 	0.0491611466903281 	-2.87951095385107e-24
1.00000000000453e-06 	1.26269111575139 	2.77555756156289e-17 	0.863025113425827 	0.0498693768536277 	-1.43654486646673e-24
1.00000000000453e-06 	1.27622539027388 	2.77555756156289e-17 	0.868727978039687 	0.0505165268848829 	0
1.00000000000453e-06 	1.29025546490643 	2.77555756156289e-17 	0.874579406997556 	0.0511006572895943 	0
1.00000000000453e-06 	1.30479950225895 	2.77555756156289e-17 	0.880588844408909 	0.051620115347185 	-6.52925115239845e-23
1.00000000000453e-06 	1.31987633029101 	3.12250225675825e-17 	0.886765009364598 	0.0520735728216086 	-6.24852015946847e-23
1.00000000000453e-06 	1.33550546668544 	3.81639164714898e-17 	0.893115657902124 	0.0524600602142054 	1.40242208012885e-22
1.00000000000453e-06 	1.35170714411495 	3.81639164714898e-17 	0.899647304678819 	0.0527789912684184 	2.76224287414282e-22
1.00000000000453e-06 	1.3685023364343 	3.81639164714898e-17 	0.906364903562861 	0.0530301713225844 	2.80295280085387e-22
1.00000000000453e-06 	1.38591278583198 	4.16333634234434e-17 	0.913271490826846 	0.0532137846802632 	2.1355764421675e-22
1.00000000000453e-06 	1.40396103097652 	4.16333634234434e-17 	0.920367801107443 	0.0533303570071268 	7.2036737094308e-23
1.00000000000453e-06 	1.42267043619387 	3.81639164714898e-17 	0.9276518760214 	0.053380690923238 	-3.05629388067598e-22
1.00000000000453e-06 	1.44206522171365 	3.12250225675825e-17 	0.935118694031864 	0.0533657787037865 	-6.1133020461025e-22
1.00000000000453e-06 	1.46217049502345 	3.12250225675825e-17 	0.942759851789903 	0.0532867008532801 	-3.05669282545947e-22
1.00000000000453e-06 	1.48301228337162 	2.77555756156289e-17 	0.950563321846617 	0.0531445202552603 	3.26790899144999e-22
1.00000000000453e-06 	1.50461756746086 	2.42861286636753e-17 	0.958513303490475 	0.0529401801920339 	8.20817076611072e-22
1.00000000000453e-06 	1.52701431637603 	2.77555756156289e-17 	0.966590176114882 	0.0526744120250582 	4.90511699069853e-22
1.00000000000453e-06 	1.55023152379144 	3.46944695195361e-17 	0.974770560018505 	0.0523476554384693 	-1.74166549044565e-22
1.00000000000453e-06 	1.57429924550461 	3.81639164714898e-17 	0.983027487940667 	0.0519599919833542 	-3.48619167466836e-22
1.00000000000453e-06 	1.59924863834497 	3.46944695195361e-17 	0.991330690369874 	0.0515110924853121 	-3.56097312108412e-22
1.00000000000453e-06 	1.62511200050782 	4.16333634234434e-17 	0.999646996815615 	0.0510001804361671 	-3.62972944612882e-22
1.00000000000453e-06 	1.65192281336593 	4.5102810375397e-17 	1.00794085370128 	0.050426014736428 	3.8483609604306e-22
1.00000000000453e-06 	1.67971578481283 	3.81639164714898e-17 	1.01617495797416 	0.0497868965839745 	1.32469832549599e-21
1.00000000000453e-06 	1.70852689419381 	3.81639164714898e-17 	1.02431100137469 	0.0490807070812444 	7.54902326830043e-22
1.00000000000453e-06 	1.73839343888296 	4.16333634234434e-17 	1.03231051177923 	0.0483049805143126 	0
1.00000000000453e-06 	1.76935408256639 	4.5102810375397e-17 	1.04013576758313 	0.0474570132561181 	0
1.00000000000453e-06 	1.80144890529426 	4.85722573273506e-17 	1.04775075016086 	0.0465340033452993 	0
1.00000000000453e-06 	1.83471945536634 	4.85722573273506e-17 	1.05512208804155 	0.045533214530715 	0
1.00000000000453e-06 	1.86920880311829 	4.5102810375397e-17 	1.06221993422062 	0.0444521426358339 	2.61085002102789e-24
1.00000000000453e-06 	1.9049615966783 	5.20417042793042e-17 	1.06901845581056 	0.0432887252264156 	5.13423437131634e-24
1.00000000000453e-06 	1.94202411976624 	5.8702771376512e-17 	1.07549574055391 	0.0420413852786414 	2.61266388879647e-24
1.00000000001227e-06 	1.98044435161019 	1.38777878078145e-17 	1.08163366933084 	0.0407093731368251 	0
1.00000000001227e-06 	2.02024009608346 	1.38777878078145e-17 	1.08737219754405 	0.0393060260676773 	0
1.00000000001227e-06 	2.06000503604194 	6.93889390390723e-18 	1.09258009534859 	0.037873783290693 	0
1.00000000001227e-06 	2.09836474743797 	0 	1.09717508175723 	0.0364573185483314 	0
1.00000000001227e-06 	2.13536888877258 	0 	1.10119269258744 	0.0350747302114608 	0
1.00000000001227e-06 	2.17106536369585 	3.46944695195361e-18 	1.10470282362915 	0.0337302357507453 	0
1.00000000001227e-06 	2.20550038302045 	3.46944695195361e-18 	1.10776210508358 	0.0324267518195085 	0
1.00000000001227e-06 	2.23871852454379 	-6.93889390390723e-18 	1.11041602830709 	0.0311660673747487 	0
1.00000000001227e-06 	2.27076279075614 	-1.38777878078145e-17 	1.11270093836063 	0.0299490000666865 	0
1.00000000001227e-06 	2.30167466450941 	-1.38777878078145e-17 	1.11464575378006 	0.0287756049567281 	0
1.00000000001227e-06 	2.33149416271873 	-1.04083408558608e-17 	1.11627338380136 	0.0276453564052758 	0
1.00000000001227e-06 	2.36025988816627 	-1.04083408558608e-17 	1.11760185963294 	0.0265573023182225 	0
1.00000000001227e-06 	2.38800907947441 	-1.38777878078145e-17 	1.11864521564265 	0.0255101917793297 	0
1.00000000001227e-06 	2.41477765931296 	-1.38777878078145e-17 	1.11941416314522 	0.0245025769942818 	0
1.00000000001227e-06 	2.44060028090273 	-1.38777878078145e-17 	1.1199165989138 	0.0235328921983729 	0
1.00000000001227e-06 	2.46551037287587 	-1.38777878078145e-17 	1.12015798615603 	0.0225995129829198 	0
1.00000000001227e-06 	2.48954018255081 	-1.38777878078145e-17 	1.12014163999472 	0.0217007995778897 	0
1.00000000001227e-06 	2.512720817678 	-1.38777878078145e-17 	1.11986894389087 	0.0208351273744265 	0
1.00000000001227e-06 	2.53508228671037 	-1.38777878078145e-17 	1.11933951860076 	0.0200009075563475 	0
1.00000000001227e-06 	2.55665353765073 	-1.04083408558608e-17 	1.11855136137221 	0.0191966002407487 	0
1.00000000001227e-06 	2.57746249552637 	-1.04083408558608e-17 	1.11750097010306 	0.0184207220708157 	0
1.00000000001227e-06 	2.59753609853934 	-1.04083408558608e-17 	1.11618346491836 	0.0176718497933038 	0
1.00000000001227e-06 	2.6169003329393 	-6.93889390390723e-18 	1.11459271781535 	0.0169486210030888 	0
1.00000000001227e-06 	2.6355802666639 	-1.38777878078145e-17 	1.11272149939092 	0.0162497329502812 	0
1.00000000001227e-06 	2.6536000817905 	-2.08166817117217e-17 	1.11056164991693 	0.0155739400781253 	0
1.00000000001227e-06 	2.67098310584103 	-2.08166817117217e-17 	1.10810427990005 	0.0149200507861261 	0
1.00000000001227e-06 	2.68775184198057 	-2.77555756156289e-17 	1.10534000254756 	0.0142869237855368 	0
1.00000000001227e-06 	2.7039279981488 	-3.46944695195361e-17 	1.10225919715418 	0.0136734643265544 	0
1.00000000001227e-06 	2.71953251516198 	-3.46944695195361e-17 	1.09885229836455 	0.0130786205215518 	0
1.00000000001227e-06 	2.73458559382185 	-3.46944695195361e-17 	1.09511010176324 	0.0125013799597425 	0
1.00000000001227e-06 	2.74910672106653 	-3.46944695195361e-17 	1.09102407168318 	0.0119407667988377 	0
1.00000000001227e-06 	2.76311469519732 	-3.46944695195361e-17 	1.08658663301542 	0.0113958395208682 	0
1.00000000001227e-06 	2.776627650214 	-3.46944695195361e-17 	1.08179142569408 	0.0108656895440369 	0
1.00000000001227e-06 	2.78966307929018 	-3.46944695195361e-17 	1.07663349887268 	0.0103494408815143 	0
1.00000000001227e-06 	2.80223785741905 	-3.81639164714898e-17 	1.07110942184405 	0.00984625102323939 	0
1.00000000001227e-06 	2.81436826325886 	-4.5102810375397e-17 	1.06521729042626 	0.00935531318158119 	0
1.00000000001227e-06 	2.82607000020648 	-4.85722573273506e-17 	1.05895661047688 	0.00887585998295231 	0
1.00000000001227e-06 	2.83735821672614 	-5.55111512312578e-17 	1.052328043791 	0.00840716860665318 	0
1.00000000001227e-06 	2.8482475259599 	-6.24500451351651e-17 	1.04533300512282 	0.00794856727629742 	0
1.00000000001227e-06 	2.85875202464506 	-6.24500451351651e-17 	1.03797310164351 	0.00749944291027997 	0
1.00000000001227e-06 	2.86888531136304 	-6.24500451351651e-17 	1.03024940702087 	0.00705924965181619 	0
1.00000000001227e-06 	2.87866050414343 	-6.24500451351651e-17 	1.02216156069525 	0.00662751794324296 	0
1.00000000001227e-06 	2.88809025744591 	-6.24500451351651e-17 	1.01370667797221 	0.00620386379869289 	0
1.00000000001227e-06 	2.89718677854204 	-6.24500451351651e-17 	1.00487804717473 	0.00578799797412014 	0
1.00000000001227e-06 	2.90596184331819 	-6.24500451351651e-17 	0.995663574806624 	0.00537973483707447 	0
1.00000000001227e-06 	2.91442681151997 	-6.59194920871187e-17 	0.986043916291767 	0.00497900089611829 	0
1.00000000001227e-06 	2.92259264145801 	-6.93889390390723e-17 	0.975990195090042 	0.00458584315025346 	0
1.00000000001227e-06 	2.93046990419395 	-7.28583859910259e-17 	0.965461161785594 	0.00420043764688931 	0
1.00000000001227e-06 	2.93806879722526 	-7.63278329429795e-17 	0.954399569113366 	0.00382309887658152 	0
1.00000000001227e-06 	2.94539915768639 	-7.28583859910259e-17 	0.942727425976004 	0.0034542908665669 	0
1.00000000001227e-06 	2.95247047508335 	-6.93889390390723e-17 	0.930339622186074 	0.00309464101829545 	0
1.00000000001227e-06 	2.9592919035784 	-6.93889390390723e-17 	0.917095150578119 	0.00274495779025723 	0
1.00000000001227e-06 	2.96587227384056 	-6.93889390390723e-17 	0.902804733767306 	0.00240625358861697 	0
1.00000000001227e-06 	2.97222010447726 	-7.28583859910259e-17 	0.887212983112764 	0.00207977573465926 	0
1.00000000001227e-06 	2.97834361306218 	-7.97972798949331e-17 	0.869972086051205 	0.00176704428519475 	0
1.00000000001227e-06 	2.98425072677325 	-7.97972798949331e-17 	0.850602078515774 	0.00146985252718268 	0
1.00000000001227e-06 	2.98994909265478 	-7.63278329429795e-17 	0.828429332588663 	0.00119023659744332 	0
1.00000000001227e-06 	2.99544608751689 	-7.63278329429795e-17 	0.802458715556571 	0.000931102079054683 	0
1.00000000001227e-06 	3.00074882748522 	-7.97972798949331e-17 	0.771113953118302 	0.000696594029906234 	0
1.00000000001227e-06 	3.00586417721304 	-8.67361737988404e-17 	0.731912269763215 	0.000491774506414664 	0
1.00000000001227e-06 	3.01079875876789 	-9.0205620750794e-17 	0.681171278460308 	0.000321928050640823 	0
1.00000000001227e-06 	3.01555896020418 	-9.0205620750794e-17 	0.613593240814417 	0.000190015210585119 	0
1.00000000001227e-06 	3.02015094383281 	-9.71445146547012e-17 	0.521784309354265 	9.53869560901152e-05 	0
1.00000000001227e-06 	3.02458065419862 	-1.00613961606655e-16 	0.39943844005444 	3.55168805738146e-05 	0
1.00000000001227e-06 	3.02885382577583 	-1.04083408558608e-16 	0.249812509679562 	6.44115620669242e-06 	0
