/*--------------------------------*- C++ -*----------------------------------*\
  =========                 |
  \\      /  F ield         | OpenFOAM: The Open Source CFD Toolbox
   \\    /   O peration     | Website:  https://openfoam.org
    \\  /    A nd           | Version:  7
     \\/     M anipulation  |
\*---------------------------------------------------------------------------*/
FoamFile
{
    version     2.0;
    format      ascii;
    class       volScalarField;
    location    "6000";
    object      k;
}
// * * * * * * * * * * * * * * * * * * * * * * * * * * * * * * * * * * * * * //

dimensions      [0 2 -2 0 0 0 0];

internalField   nonuniform List<scalar> 
15600
(
0.000319938792822453
0.000292110006405283
0.000171227499348798
6.93861731319127e-05
1.81611430123343e-05
1.24350172982937e-05
1.30376544639663e-05
1.00236763088169e-05
7.99046683534207e-06
7.07399644702123e-06
6.628601563296e-06
6.57321808076169e-06
6.93800652166587e-06
7.78681105445534e-06
9.27727507051613e-06
1.15529035872003e-05
1.47802886304446e-05
1.90687929149303e-05
2.465411868218e-05
3.17513176195112e-05
4.04431128957417e-05
5.06548237170285e-05
6.26062980992825e-05
7.63196610154958e-05
9.11062023360545e-05
0.000106256242387002
0.000120812500236461
0.000133962932252042
0.000167325656511867
0.000213304737013444
0.000252559750189705
0.000286868738735448
0.000318207190610044
0.000346955798085424
0.000372907649038054
0.000395876697206521
0.000416260214998064
0.00043407909242888
0.00044939784531354
0.000462293784854364
0.000472866774117997
0.00048123679112643
0.000487542284232718
0.000491934458813313
0.000494573229348854
0.000495621927793812
0.000495243533460799
0.000493596915635667
0.000490834274861366
0.000487099032071429
0.00048252448065666
0.000477232982589513
0.000471335602726569
0.000464932097153555
0.000458111214368207
0.000450951176113348
0.000443520473882041
0.000435877734478135
0.000428072893839193
0.00042015023187296
0.000412144742284519
0.0004040862319122
0.000396000248964657
0.000387905359190352
0.000379815968863965
0.000371742596699297
0.000363692081963427
0.000355667950736021
0.000347670674098345
0.000339697850846207
0.000331744396080409
0.000323802529024843
0.000315861917736923
0.00030790937832612
0.000299929089665771
0.000291901739525865
0.000283805134171185
0.000275612129104979
0.000267292477904548
0.000258808096110115
0.000250122293841469
0.000241128251419228
0.00023189698091904
0.000222431446711225
0.000212619304171576
0.000202270503337343
0.000191268094788978
0.000179344319692064
0.000166368015815898
0.000151942736388761
0.000135552610797777
0.000114877451611336
0.000102870423447056
0.000112342472791795
0.000122731588192865
0.000134715124534724
0.000145279960131271
0.000154943722847617
0.000164531032698625
0.000175089723607733
0.000184594433294732
0.000193521897749686
0.000201627304385112
0.000208686571637585
0.000211256039494515
0.000211141379170035
0.000209694339292896
0.000207607320171698
0.000206167818458475
0.000208257076368639
0.00021918212452386
0.000237065818081072
0.000265554417562787
0.000315007797552623
0.000389832494285006
0.000465916035291385
0.000419682396112015
0.000337557751073766
0.000276428771758278
0.00030090482266731
0.0054583451464548
0.00500280520852494
0.00311515199395412
0.00131366797401037
0.0003474192024128
0.00022988922699546
0.000241064613155065
0.000186623023489983
0.000148375183777782
0.000130911780604725
0.000122306948470845
0.000120943136071853
0.000127243935491142
0.000142352113330911
0.000169103420154655
0.000210061636388119
0.000268141425635511
0.000345157755984445
0.000444945813425499
0.000570702918571671
0.00072295485315519
0.000899368849450674
0.00110193970952891
0.0013287799352589
0.00156749181985877
0.00180664896166191
0.00203531551793371
0.00227039484629822
0.00278271845128411
0.0034197054566466
0.00394023709393818
0.00438263113440135
0.00477809904132822
0.00513442368305863
0.00545146893350618
0.00572745770208244
0.00596989289382527
0.00618027101867944
0.00636037033048325
0.00651184160236363
0.00663637400828327
0.00673569920452873
0.00681160580197028
0.00686590903550274
0.00690043325498036
0.00691697986000478
0.00691730601728999
0.00690310089963761
0.00687597023716193
0.0068374228584313
0.00678886231640576
0.00673158213733024
0.00666676390599369
0.00659547783758284
0.00651868568444939
0.00643724499544453
0.0063519162820418
0.00626336000699779
0.00617214686481586
0.00607878974970073
0.00598370833532269
0.00588726094577452
0.00578975782677951
0.0056914369326245
0.00559248677274022
0.0054930502147401
0.00539322620804443
0.00529307294322714
0.00519260998521258
0.00509181957090197
0.00499064784172169
0.00488900394868985
0.00478676045953833
0.00468374908699502
0.00457976113627093
0.00447453678416374
0.00436776843040191
0.00425907604934286
0.00414802132269771
0.00403405257622921
0.00391660289671698
0.00379417217994413
0.00366778133325356
0.0035373629962478
0.00340111320170675
0.00325628947879875
0.00310081225531414
0.00293070568030117
0.00274307518081561
0.00253192196495885
0.00228734040006574
0.00197321816724771
0.00177777053005504
0.00191094858814414
0.00207789832478946
0.00227043927220054
0.00244489830572044
0.00260870018046014
0.0027743825126257
0.00295574476924566
0.00312214222659816
0.00327913039065442
0.0034226339435043
0.00354750829714239
0.00360245220568592
0.00361517176624563
0.00360651703559101
0.00358755498347301
0.00357956577617796
0.00363078619268548
0.00382353206437657
0.00412222076927895
0.00458219321023482
0.00533947621113346
0.00641060882821351
0.00742624486744987
0.00689862577094512
0.00581934895947232
0.00490008373982842
0.00519426784873271
0.017590172674892
0.0163644053513399
0.0124814619005198
0.00677437425366934
0.00198185578236326
0.00116329969432834
0.00121339003435773
0.000959819771435279
0.000769020325441323
0.000677846786711232
0.000632118000132309
0.000622398429779322
0.000650571306714751
0.000721992549355937
0.000848951785335891
0.00104008075161028
0.00130186850415165
0.00163320177080843
0.00203596721242449
0.00250370444515276
0.00301943462849458
0.00356401067543827
0.00413410843455262
0.00472000845856582
0.00530155012128471
0.00587779896679853
0.00647623989275874
0.00718263947363504
0.00832249811916457
0.00955090748429486
0.0105384028864179
0.0113788680577976
0.0121272101567951
0.0127980296654937
0.0133949108329651
0.0139214615624769
0.014386183221371
0.0147926374762227
0.0151442688595329
0.0154441466598176
0.0156952824615476
0.015900672417137
0.0160633482251186
0.0161863537747093
0.016272730702293
0.0163254811779579
0.0163475403328792
0.0163417445817758
0.0163108089513143
0.0162573070204966
0.0161836569654067
0.0160921127139248
0.0159847589187394
0.0158635096141186
0.0157301103091622
0.0155861422691958
0.0154330299545931
0.0152720402890383
0.0151042924223116
0.0149307959012527
0.0147524201245125
0.0145699197380982
0.0143839544861346
0.0141950696773358
0.0140037173092185
0.0138102634392956
0.0136149916379476
0.0134181073472549
0.0132197408567094
0.0130199489970638
0.0128187161553871
0.0126159525588947
0.0124114929213593
0.0122050895772352
0.0119964088030502
0.0117850147610626
0.0115703648134822
0.0113517751125914
0.0111284193782499
0.0108992573212733
0.0106631067116923
0.0104178286247182
0.0101636151389575
0.00990048386654126
0.00962494164637321
0.00933181127849107
0.00901588120153406
0.0086691816851919
0.00828271746792385
0.00784336434266374
0.00732426335909467
0.00664076512989487
0.00614517849210291
0.00632521927947703
0.00671136510708169
0.00719640267906144
0.00768527958376084
0.00817943137260688
0.00870216674340235
0.00927373265996078
0.00983449029387949
0.0103777017263889
0.0108909628714443
0.0113558009171189
0.011674143536944
0.0118873474618957
0.0120448511647913
0.012178694866586
0.0123361970614398
0.0126279332011899
0.0132322146007776
0.0140673898594444
0.0151992956559295
0.0167960812459912
0.0187835405244288
0.0204049517066174
0.0197707896246555
0.0183093268480001
0.0171932223361321
0.0175445260285297
0.0260739454883066
0.0248523020870511
0.0209167754559597
0.0142796217358696
0.005978613548664
0.00323547478894243
0.00319513626047167
0.00263013853833798
0.0021583996020907
0.00190862510220619
0.00177298223032664
0.00172593708441321
0.00177163231953205
0.00191771069622842
0.00218186578147977
0.00256484231615608
0.00305637844115326
0.00363222046354426
0.00427887684360281
0.00497598132017531
0.005698431674159
0.00643087607383864
0.00718123075354515
0.00794627236789305
0.00871505203133407
0.00950610802087107
0.0103810214375175
0.0114660979549813
0.0130084386190469
0.0145666567771166
0.0158275037770326
0.0169121314888658
0.0178745034690619
0.0187325471139301
0.0194947990718026
0.0201700526264289
0.0207664884318389
0.0212888970901659
0.0217416564973482
0.0221286986574192
0.0224538564537043
0.0227209223911659
0.0229337074521343
0.0230960213566951
0.0232116559675475
0.0232843462013687
0.0233177382066073
0.0233153545211267
0.0232805677430347
0.0232165779318741
0.0231263963693382
0.023012835320015
0.0228785021503146
0.0227257977428467
0.0225569188293544
0.0223738626201385
0.0221784371813176
0.0219722579593382
0.0217567648445349
0.0215332537387986
0.021302857539442
0.0210665660610708
0.0208252458118673
0.0205796303110466
0.0203303367801114
0.0200778753012322
0.0198226540995244
0.0195649847996436
0.0193050862334834
0.0190430868263639
0.0187790258525177
0.0185128521449573
0.0182444221431076
0.017973493293116
0.0176997182606257
0.0174226294721744
0.0171416291347244
0.0168559573009517
0.0165646780215705
0.0162666160790806
0.0159603823489883
0.0156438715778656
0.0153157737928947
0.0149757839068854
0.014620508789406
0.0142444626248545
0.0138413381496994
0.0134021015171131
0.0129154477957437
0.0123652031867749
0.0117233215448611
0.0108858788026907
0.0102321555926686
0.0103481440971084
0.0108115045331291
0.0114514959246292
0.0121503714236398
0.0128906659332041
0.0136923240061336
0.0145705720270247
0.0154598887363237
0.0163366197430817
0.0171798067271088
0.0179593680821451
0.0185693310214427
0.0190410066515341
0.0194362739697215
0.0198046282815177
0.020207296822921
0.0207767368536485
0.0217128391273208
0.0229251862715168
0.0244425818463116
0.0264016913165023
0.0287440369396432
0.0307658321521376
0.0302012598276957
0.0279643128208126
0.0260425697525646
0.0260020351956665
0.0317140144205339
0.0306700403407859
0.0269202085520132
0.0204914335903701
0.0113796043972964
0.00635958446729052
0.00565536037292951
0.0048088762480724
0.00406225671535452
0.00361265717017402
0.00333971202037245
0.003208001444187
0.00322368248556675
0.00339376714230758
0.00373354006182734
0.00422779431063469
0.00484545858230541
0.00554615406558468
0.00631006262355047
0.0071138907514069
0.00793561385248383
0.00876925566940473
0.00963011505307637
0.0105190712592306
0.0114336794354941
0.0124061092390054
0.0135154292970494
0.0148963261600954
0.0167130482018344
0.0184859295720908
0.0199345778505291
0.0211883916472653
0.0222993693477902
0.0232872751587185
0.024165627718924
0.024945175158716
0.0256340505008006
0.0262378028052883
0.0267614000643728
0.0272093523637696
0.0275860547554077
0.0278958563260474
0.0281431184840122
0.0283321966095953
0.0284674197118972
0.0285530492585297
0.02859324335154
0.0285920191927554
0.0285532236549736
0.0284805086519146
0.0283773130697256
0.0282468514169936
0.0280921073108535
0.0279158317187249
0.0277205454598186
0.0275085453709285
0.0272819136259125
0.0270425151070544
0.0267920207110183
0.0265319308511772
0.0262635667838182
0.0259880870147289
0.0257065063145431
0.0254196932425717
0.0251283843457258
0.0248331942943217
0.0245346226044109
0.0242330597114853
0.0239287915446294
0.02362200260829
0.0233127776491304
0.0230011009736318
0.0226868544375066
0.0223698115267168
0.0220496306602171
0.0217258409949656
0.0213978296637231
0.0210648130727229
0.0207258158821276
0.0203796161718366
0.0200247395216293
0.0196591463081886
0.0192808467919041
0.0188884862243938
0.0184791175358111
0.0180474379586826
0.0175868099908635
0.0170879517617517
0.0165387289602213
0.0159219992538652
0.0152099496565576
0.0142950698152616
0.0135437804240973
0.0135738215107914
0.0140448062173749
0.0147578883268013
0.0155817066978004
0.0164811016355858
0.0174680945343747
0.0185514293516028
0.0196661234061962
0.0207774068075072
0.0218576264291512
0.0228686579501632
0.0237066624411723
0.0243910035112484
0.0249853597412413
0.0255491036685926
0.0261519581297787
0.0269342962012823
0.0281002690815553
0.0295783582632825
0.0313791417517801
0.0336150905772868
0.0362551093566747
0.0386819410191446
0.0385529202898667
0.0359747860517885
0.0328715202040686
0.0318578916499572
0.0363227157475371
0.0352750061587407
0.0316607899842426
0.0253353229105364
0.0166842395922325
0.0100926583417242
0.00809526991519681
0.00694497239184824
0.00599316301044435
0.00536071898005207
0.00494456178853972
0.00471032656227355
0.00466704514534194
0.00482343525468761
0.00519140954659134
0.00574141618506507
0.00642536578737767
0.00719380785520669
0.00802430966960563
0.00889378177807683
0.00978466489691851
0.0106980270351957
0.0116526682549747
0.0126521512307371
0.0137008176127116
0.0148394461841655
0.0161541214769521
0.0177729281551885
0.0197905836871489
0.0217194061775757
0.0233118889384039
0.0246966698770974
0.0259236844035657
0.0270146472778949
0.0279858106690746
0.0288486652843629
0.0296114747565566
0.0302803217011218
0.0308606106701973
0.031357294435658
0.0317752046786432
0.0321191291969479
0.032393867016866
0.0326042104326471
0.032754920627581
0.0328506842301176
0.032896073746265
0.0328955074630851
0.0328532172063058
0.0327732218620536
0.0326593076668193
0.0325150158505786
0.0323436355631626
0.0321482019432883
0.0319314989232083
0.0316960681673562
0.0314442103404073
0.0311779952633467
0.0308992806678199
0.0306097329072169
0.0303108255274197
0.030003853953642
0.0296899537761565
0.0293701033031527
0.0290451365918744
0.0287157542546286
0.0283825313288109
0.0280459241172788
0.0277062754780044
0.0273638185728031
0.0270186790197176
0.0266708748390171
0.0263203146556895
0.0259667925153513
0.0256099809260698
0.0252494179090685
0.0248844929252117
0.0245144209511358
0.0241382176788141
0.0237546512415555
0.0233622173815501
0.0229589337264481
0.0225425520734102
0.0221109905460548
0.0216613841410426
0.0211887331081442
0.0206864253060164
0.0201452891966445
0.019553012666633
0.0188924237545201
0.0181360693116703
0.0171790894984591
0.0163639136124435
0.0163110336674932
0.0167597011164165
0.0175037499251212
0.0184035355142284
0.0194096601208764
0.0205251932043446
0.0217521416174709
0.0230268176479429
0.0243073147746522
0.0255605962787969
0.0267424992414719
0.0277533320115445
0.0286038432671308
0.0293560734670946
0.0300746135192483
0.0308349389615534
0.031780794582976
0.0331144463598622
0.0347865004507139
0.0368026856802592
0.0392567265816812
0.0421299947015394
0.0448564255314234
0.0451783282104477
0.0427193342100458
0.0389580094871983
0.0369650283171164
0.0404911290074815
0.0392820647126408
0.0357661641294399
0.0293792805700271
0.0212628459905969
0.0140365293016471
0.0104698212084689
0.00888516044309652
0.00776301236306563
0.00697892295712931
0.00643689475318657
0.00610776739361405
0.00600281173172667
0.00613361228756105
0.00650942797861222
0.0070896988135758
0.00781349498799012
0.00862603463463743
0.00950361696304289
0.0104242409634326
0.0113743704262012
0.0123600533146348
0.0134019101546815
0.0145056176639006
0.0156806501342017
0.0169725886645826
0.0184680686442127
0.0202822923498819
0.0224555051443366
0.0245072855795248
0.026218355331975
0.0277122920193585
0.0290370721219266
0.0302160542693718
0.0312667534132439
0.0322009931075185
0.0330272329262651
0.0337519658419559
0.0343809502760144
0.0349195058134525
0.0353728299050762
0.0357460818969966
0.0360444339954323
0.0362730530945645
0.0364370723550405
0.0365415453443596
0.0365914029240499
0.0365914106464446
0.0365461338773604
0.0364599095730646
0.0363368250369795
0.0361807046238416
0.0359951021525976
0.0357832987984572
0.0355483076686552
0.0352928799520389
0.0350195062352181
0.0347304339486729
0.0344276819756095
0.0341130603253858
0.0337881739299895
0.0334544366462227
0.0331130890484873
0.0327652045919023
0.032411702244923
0.0320533578593271
0.0316908130033515
0.0313245825361907
0.0309550605857117
0.0305825249475582
0.0302071397708151
0.0298289561386069
0.0294479106497772
0.0290638209826326
0.028676379072582
0.0282851393475324
0.0278895042477596
0.027488700689948
0.0270817535728813
0.026667442669423
0.0262442670197052
0.0258103011647438
0.0253632245897422
0.0249005697745669
0.0244194022348304
0.0239150036441656
0.0233809602600555
0.0228084085307466
0.022185232429332
0.0214947011070556
0.0207099306659273
0.0197314697760844
0.0188754909046571
0.0187495168620852
0.0191630415390581
0.019914759587646
0.0208610359373539
0.0219415343928374
0.0231505917543717
0.0244835463250725
0.025877573022491
0.027285833557407
0.0286707523427696
0.0299833444902755
0.0311282704780205
0.0321106400336487
0.0329900710542474
0.0338339010899219
0.0347217173957901
0.0357986816997457
0.0372624309095896
0.0390824710542343
0.0412653882138405
0.0438899865190457
0.0469385675194304
0.0498695060383935
0.0505432793105103
0.0483474970239332
0.0443843809168107
0.0416942306091014
0.044358871190461
0.0429223853524465
0.039476237987566
0.0330226401712839
0.0251158931351344
0.0179030704474979
0.0128889081970782
0.0106816129396723
0.00937861083769547
0.0084651340704775
0.00781547361854244
0.00740350457922359
0.00724123139936652
0.00734281227816535
0.0077158511598119
0.00831218292519243
0.00906153037884096
0.00990576615318289
0.010820514022936
0.011785112522694
0.012789392101352
0.0138429999460787
0.0149676155090488
0.016170578544096
0.0174649171464429
0.0188981164817484
0.0205533900462567
0.0225311701198588
0.0248304266317693
0.0269852569105368
0.0287991856253169
0.0303887368320475
0.0318000477901689
0.0330576182532195
0.0341794534349795
0.0351775618334976
0.0360606108739787
0.0368354283224476
0.0375080756796827
0.0380841920304163
0.0385692966432076
0.0389688786756112
0.0392884435275492
0.039533493976981
0.0397094977404739
0.0398218390643418
0.039875772198045
0.0398763763044055
0.0398285180611361
0.0397368217641389
0.0396056466190806
0.0394390725622228
0.0392408921969734
0.0390146088228218
0.0387634431829156
0.0384903320760833
0.0381979394450484
0.0378886720800593
0.0375646935243219
0.0372279431716224
0.0368801439251606
0.0365228161374772
0.0361572951632748
0.0357847402176516
0.0354061470652099
0.0350223599299232
0.0346340811771097
0.0342418796012276
0.0338461970787793
0.0334473536121473
0.0330455505850256
0.0326408719866962
0.0322332834861954
0.0318226287572471
0.0314086230546657
0.0309908425993034
0.0305687102820296
0.0301414742684564
0.0297081811516307
0.0292676371279763
0.0288183668747879
0.028358507139626
0.0278857537701402
0.0273974780223697
0.0268906608692604
0.026360836571088
0.0258018710307187
0.0252053197432176
0.0245594902297979
0.0238483377247815
0.0230457427445569
0.0220588050444082
0.0211786211889986
0.0209913269045748
0.0213653695464996
0.0221113463148413
0.0230852556865381
0.0242187102157
0.0254980328980124
0.0269121621395011
0.0283985612738875
0.0299066913835453
0.0313950084682996
0.0328105644246182
0.0340621904985791
0.0351514813532584
0.0361357252660158
0.0370837252076239
0.0380781063708872
0.0392643136585634
0.0408340052252415
0.0427717256408189
0.0450867602077892
0.0478450666192086
0.0510223068660343
0.0540864244806404
0.0550123246706363
0.0530856470697742
0.0491570971586078
0.0460462669956478
0.0479512242177647
0.0462848638326294
0.0428884739140428
0.0364568212162048
0.0284752370501654
0.0215421567635133
0.0154533136930508
0.0124221522622412
0.0108893552509928
0.00985593974595056
0.00911175364263951
0.00862638134701158
0.00841075555404614
0.00848073351885897
0.00884317235333876
0.00944533016119857
0.0102103719686733
0.0110779502287535
0.0120232741567802
0.0130270028406731
0.0140816931113583
0.0151996261543338
0.0164031109981161
0.0177006784926433
0.0191074987942856
0.0206708166696232
0.0224681233221161
0.024585341903689
0.0269906304993895
0.029235684635023
0.0311420312711048
0.032818265820191
0.034308743627283
0.0356386029142727
0.0368259455061459
0.0378829020044367
0.0388183367370215
0.0396393620248267
0.0403523087111251
0.0409631041762289
0.0414775610082986
0.0419014712432545
0.042240647795379
0.0425009044538015
0.0426880194240558
0.0428076842347775
0.0428654538785827
0.0428666992393901
0.0428165672466611
0.0427199493648416
0.0425814574651885
0.0424054088174207
0.0421958175783219
0.0419563943092358
0.0416905500126845
0.0414013938551606
0.0410917508262001
0.0407641747447218
0.0404209626251955
0.0400641735359689
0.0396956392108699
0.0393169783188459
0.0389296139957196
0.0385347847956004
0.0381335577155243
0.0377268406558839
0.0373153928817802
0.0368998340117951
0.036480651342038
0.0360582055365548
0.0356327344829976
0.0352043551738132
0.0347730633560557
0.0343387306361788
0.0339010986402271
0.0334597695390714
0.0330141923416639
0.0325636434998129
0.0321072006052938
0.0316437073230981
0.0311717301714927
0.0306894757584812
0.0301947030813853
0.0296847565973631
0.0291565793085335
0.0286059369980571
0.0280270164662464
0.0274118548637942
0.0267493234600242
0.0260241910261036
0.025211259347952
0.0242244946071407
0.0233322427495563
0.0230951522430753
0.0234298327621342
0.0241623876702294
0.0251513595605582
0.0263227897554018
0.0276559102677456
0.0291336624467976
0.0306933191760401
0.0322813527580481
0.0338526568215982
0.0353509902661463
0.0366891270187563
0.0378666160803592
0.0389387737227501
0.0399752114851342
0.0410608290179663
0.0423405288956997
0.0439992750931907
0.0460333470451388
0.0484547662270297
0.051317500967394
0.0545857255844157
0.0577299037818331
0.0588283196952992
0.057135452249461
0.0533450592468242
0.0500102208735182
0.0512772190110056
0.0494085227103456
0.0460516226376304
0.0397462853954975
0.0315192626882694
0.0249007774404108
0.0182128641141289
0.0141899075518869
0.0123440088999817
0.0111866939784969
0.0103556077120881
0.00980289833509869
0.00953615194286505
0.00957184076667217
0.00991674965728838
0.0105161321424688
0.0112888803553254
0.012173141660385
0.0131437978521675
0.0141826717379869
0.0152844623600533
0.0164633633349291
0.0177420042693182
0.019129625575196
0.0206423438827241
0.0223256370371525
0.0242500872584731
0.0264882984092073
0.0289855751776924
0.0313121445294543
0.0333036468095059
0.0350604316019545
0.0366250361176858
0.0380228263810647
0.0392717856480705
0.04038412978618
0.0413688996138007
0.0422334563501491
0.0429843766627823
0.0436278551357325
0.0441699790292556
0.0446168258648555
0.0449744996388561
0.0452491092320459
0.0454467278922327
0.0455733393167787
0.0456347845066071
0.0456367117081524
0.045584534168634
0.0454833970723744
0.0453381520240828
0.0451533412699281
0.0449331889941422
0.0446816031391011
0.0444021712370052
0.0440981675146905
0.0437725687169987
0.0434280670621072
0.0430670851700466
0.0426917949300294
0.0423041304456259
0.0419058028874836
0.0414983181854086
0.041082989669596
0.0406609516077406
0.0402331722413157
0.0398004649860965
0.039363498116129
0.038922802760543
0.0384787792473748
0.0380317015863812
0.0375817200236408
0.0371288613315997
0.0366730267169475
0.0362139867011513
0.0357513727952293
0.0352846646715017
0.0348131726984162
0.0343360128030351
0.0338520748650815
0.0333599796410752
0.0328580118960684
0.0323440212041169
0.0318154055030599
0.0312691323703852
0.030701190228622
0.0301061098579725
0.029476444422018
0.0288017139721163
0.0280675629504664
0.0272498337141741
0.0262692439200887
0.0253739146644755
0.0250974641772574
0.025395250541452
0.0261102476469397
0.0271057216730644
0.0283042371646943
0.0296789234297782
0.0312072132674592
0.0328258450025884
0.0344787312854442
0.036117509054689
0.0376832005127471
0.0390923284024283
0.0403434195142603
0.0414902238373405
0.0426028294957195
0.0437678159778652
0.0451288577589138
0.046863825089281
0.0489780823014876
0.0514855889211577
0.0544285248138034
0.0577566729445042
0.0609406757431877
0.0621512100975699
0.0606496152484759
0.0570353343604525
0.0536035226330373
0.0543493198023696
0.0523155319066318
0.0489962975824527
0.0428981911253844
0.0343830378998656
0.0279604359071495
0.021145806071685
0.0160589578265041
0.0137863266303692
0.0124862703652076
0.0115706365396638
0.0109537161525782
0.0106364395723235
0.0106346754286697
0.0109555118879778
0.0115443167695051
0.0123176559661911
0.0132127085872458
0.0142040272807251
0.0152743720070295
0.0164200598224047
0.0176566231585307
0.0190067476827507
0.0204799218941967
0.0220922375122798
0.0238863682648051
0.025925518583107
0.0282704580869723
0.0308495874253878
0.0332515142922806
0.0353229467865437
0.0371559512835652
0.038791148050168
0.0402538041218365
0.0415616545600694
0.0427269691081668
0.0437589408823094
0.0446651531490671
0.0454524114963795
0.0461271634594347
0.0466957590945942
0.0471645506409757
0.0475399231788583
0.0478282709859545
0.0480359528797781
0.0481692353303845
0.0482342360477473
0.048236871436269
0.0481828119819215
0.0480774477059488
0.0479258612805965
0.0477328115429607
0.0475027258865112
0.0472396999962823
0.0469474909546319
0.0466295319886686
0.0462889450202897
0.0459285545079187
0.0455509030270799
0.0451582703412296
0.0447526882518668
0.0443359562004485
0.0439096592706045
0.043475182246581
0.0430337237783106
0.0425863100242969
0.042133806570641
0.0416769288095826
0.041216250614548
0.0407522113476014
0.0402851209940277
0.0398151634091116
0.0393423973009108
0.0388667549675411
0.0383880380029082
0.0379059101424019
0.0374198855265241
0.0369293131411595
0.0364333532866843
0.0359309492814822
0.035420786010973
0.0349012345372528
0.0343702528041751
0.0338253421405967
0.0332635514684069
0.0326810953903983
0.032072862638199
0.0314319396381914
0.0307485438944068
0.0300092193579926
0.0291909351991007
0.0282208280512546
0.0273291604220217
0.0270224736736455
0.0272870090186217
0.0279825875678809
0.0289787055329402
0.0301961808263502
0.0316030191308155
0.033171681992717
0.0348381522254771
0.0365440553281675
0.0382380160399478
0.0398588001252606
0.0413265332005104
0.0426394453150268
0.0438500983921405
0.0450288887850364
0.0462635688663617
0.0476959800698118
0.049496666826527
0.05167795662327
0.0542545921222774
0.0572569392828299
0.0606189911730682
0.0638119521247132
0.065089383326601
0.063739721645537
0.0603083897368253
0.0568587548825639
0.0571840601150959
0.0550224045225939
0.0517448432384248
0.0459003449730771
0.0371608000437477
0.030747687150377
0.0241667196527727
0.0180928719341622
0.0152580033696778
0.0137790158711362
0.0127755334681578
0.0120949300592079
0.0117263039928133
0.0116834948973154
0.0119739395665002
0.0125447963217127
0.0133120146326829
0.0142122875469912
0.0152198020110567
0.0163179980491391
0.0175043408448058
0.0187952216418702
0.020213136042629
0.0217674011942875
0.0234733222794062
0.0253701063242282
0.0275135542230014
0.0299540716862907
0.0326075714300338
0.0350803646049745
0.0372278730747607
0.0391339845332482
0.0408372695445619
0.0423626307143486
0.0437274656729834
0.0449440648936801
0.0460217481181072
0.0469682992589464
0.0477907404425629
0.0484957627963004
0.0490899722355969
0.049579989830175
0.0499724764941768
0.0502741067912081
0.0504915200145792
0.0506312601775805
0.0506997163360891
0.0507030675589664
0.0506472359644763
0.0505378507798193
0.0503802201002307
0.0501793139182595
0.04993975894839
0.0496658295710136
0.0493614498519236
0.0490302069866589
0.048675363367411
0.0482998712504372
0.0479063890585963
0.0474973008107303
0.0470747325789585
0.0466405689500586
0.0461964714620019
0.0457438938957818
0.045284097146017
0.0448181635024078
0.0443470092798238
0.0438713958948763
0.0433919392273782
0.042909117303901
0.0424232761071722
0.0419346335352337
0.041443281121183
0.0409491836279972
0.0404521756627219
0.0399519557219025
0.0394480757089313
0.0389399272835956
0.0384267202579607
0.0379074575468532
0.0373808963246549
0.0368455015888261
0.0362993522844143
0.0357400853275806
0.0351648771573111
0.0345701793843248
0.0339512482511005
0.0333017100764144
0.0326125037939652
0.0318710734055156
0.0310555725514252
0.0300991244343787
0.0292162244735513
0.0288871405079136
0.0291225702378559
0.0297983502743284
0.0307911428303668
0.0320214103047694
0.0334529609099957
0.0350538425754812
0.0367591615787752
0.0385084414609037
0.0402475026136256
0.0419132804426879
0.0434294019860845
0.0447943264903905
0.0460597548841613
0.0472962970555983
0.0485924116538683
0.0500875623986294
0.0519448230293828
0.0541817514172444
0.0568126270768461
0.0598560685671439
0.0632301069432575
0.066408314391553
0.0677187581958187
0.0664874665426809
0.0632315716420174
0.0598123016045138
0.0597997680003906
0.0575435456464259
0.0543147935214552
0.048740891822149
0.0399079453374681
0.0333139672214125
0.027156247379675
0.0203418526340802
0.0168018801173081
0.015087459547038
0.0139860211313214
0.0132396846812371
0.0128175950972219
0.0127297430066705
0.0129836094522348
0.0135293793636916
0.0142839074855303
0.0151838944942643
0.0162031279389395
0.0173254647853263
0.0185490956074912
0.0198908526374367
0.0213728060684897
0.0230037361038892
0.0247975846840387
0.0267897072617678
0.0290287327317466
0.0315560218878897
0.0342782671393581
0.0368185719284738
0.0390392603323763
0.0410162188513065
0.0427858209170882
0.0443723812373277
0.045792888441916
0.047059616483847
0.0481819853929445
0.0491679617154176
0.0500247749549348
0.0507593541369299
0.051378557883416
0.051889273985889
0.0522984376213949
0.0526130020672275
0.0528398853573722
0.0529859069896493
0.0530577249719977
0.0530617783221818
0.0530042377586104
0.0528909684811914
0.0527275005697804
0.0525190128867291
0.0522703260657072
0.0519858895945317
0.0516697919629751
0.0513257708072312
0.050957225621252
0.0505672332402452
0.0501585649260289
0.0497337062809781
0.0492948751072616
0.0488440388019559
0.0483829333314728
0.0479130796344791
0.0474357992518792
0.046952229278037
0.0464633357034551
0.0459699251960148
0.0454726551589507
0.0449720421044478
0.0444684681596902
0.0439621857593628
0.043453320140697
0.0429418698247378
0.042427704206954
0.0419105588352969
0.0413900263068593
0.0408655445474835
0.0403363773702993
0.0398015926619883
0.0392600267999347
0.0387102457249903
0.0381504590217127