/*--------------------------------*- C++ -*----------------------------------*\
  =========                 |
  \\      /  F ield         | OpenFOAM: The Open Source CFD Toolbox
   \\    /   O peration     | Website:  https://openfoam.org
    \\  /    A nd           | Version:  7
     \\/     M anipulation  |
\*---------------------------------------------------------------------------*/
FoamFile
{
    version     2.0;
    format      ascii;
    class       volVectorField;
    location    "6000";
    object      U;
}
// * * * * * * * * * * * * * * * * * * * * * * * * * * * * * * * * * * * * * //

dimensions      [0 1 -1 0 0 0 0];

internalField   nonuniform List<vector> 
15600
(
(0.102988621603487 -0.000385369956465651 -1.15860012741091e-21)
(0.124993988505474 -0.00345730265104032 -2.38759804829773e-18)
(0.0877700191509444 -0.0115603075302238 0)
(0.00529728745922113 -0.0043784060525605 -2.03266912563432e-17)
(-0.0431582196127256 0.0171067020318363 -2.39925937430974e-21)
(-0.0393827647462169 0.0223260291106921 -1.47277209897922e-20)
(-0.0266727741497507 0.0180707470076015 -4.17617509405952e-17)
(-0.0207793195235826 0.0155472611356649 4.30291780223401e-17)
(-0.0170030986107918 0.013535132439858 -1.25963948225281e-14)
(-0.0155792384844192 0.0126306080649728 -1.32194478033145e-14)
(-0.0145034873750812 0.0116822104867925 1.22198269257091e-20)
(-0.0142239566104024 0.011273352089253 -2.56758929674374e-20)
(-0.0142299540272943 0.0111422619875614 2.70116176594855e-20)
(-0.014721799864803 0.0114272273008996 -5.7707317929507e-17)
(-0.0158760177048865 0.0122377487298239 -6.00456885352992e-17)
(-0.0177999554325261 0.0136213460241101 -6.06065680955309e-20)
(-0.0202344190230422 0.0153195264143228 -6.38334733277269e-17)
(-0.0229431425918284 0.0169510732653611 1.320321240111e-16)
(-0.0259072011366391 0.0183548307838796 -6.81899778472129e-17)
(-0.0289074138822381 0.0192570811242668 -7.10784167037458e-17)
(-0.0315956062900666 0.0193413010222592 7.37798176977946e-17)
(-0.0340150132243702 0.0185539374447351 -7.65759068088962e-17)
(-0.0364444273447475 0.0171550937306894 -2.99832561598645e-22)
(-0.0386471554636843 0.0151573095125196 8.12659902981858e-17)
(-0.0404079961070869 0.0125332938432981 0)
(-0.0416439219439823 0.00935270864836621 0)
(-0.0412493138995669 0.00556279965309618 -6.17994768537885e-15)
(-0.0452225355079428 0.00201153614564225 -6.1847864162422e-15)
(-0.0576709713456688 0.000470268488952017 1.91838555384782e-23)
(-0.0684138239981377 0.000475281279300146 5.58003978926451e-31)
(-0.0745118973147416 0.000467998403016898 0)
(-0.0785046876376602 0.000459875663758353 -6.44371692169987e-15)
(-0.080868448010246 0.000453967906272272 -6.50718878480648e-15)
(-0.0820840033043962 0.000443238268850342 0)
(-0.0823409383970306 0.000428988594794744 0)
(-0.081812174865836 0.000411607114508203 0)
(-0.0806209012336072 0.000392423784051233 0)
(-0.0788638161825714 0.000371412360295838 -7.59718374762008e-20)
(-0.0766206363205691 0.000349190214544279 6.32434280963746e-15)
(-0.0739638856375296 0.000326262134300899 6.44959224985753e-15)
(-0.0709590261750541 0.000303094231193299 -7.75840488133929e-20)
(-0.0676664608734552 0.000280081629922401 -7.89380182139177e-20)
(-0.0641416429473176 0.000257543052212745 7.94046171791912e-20)
(-0.0604352847526135 0.000235730895795327 -8.08778795531331e-20)
(-0.0565934172815061 0.000214830184169921 8.14729287148129e-20)
(-0.0526574119957512 0.000194971995048004 0)
(-0.0486641129181253 0.000176237525538399 -7.24358374432664e-15)
(-0.0446459707352493 0.000158669148020304 -7.39193896469369e-15)
(-0.0406312804797805 0.000142276299220181 -8.63074084223029e-20)
(-0.0366444295654284 0.000127043290165527 4.3659990421251e-20)
(-0.0327062032610918 0.00011293494330986 -4.44728301243415e-20)
(-0.0288340971132097 9.99018844753713e-05 8.99870816367892e-20)
(-0.0250426419389085 8.78846690543827e-05 -7.58551486566693e-15)
(-0.0213437286387191 7.68174465123015e-05 -7.71544424765084e-15)
(-0.0177469219558985 6.66306023638713e-05 -2.33846498240188e-20)
(-0.0142597691033469 5.72596819922717e-05 0)
(-0.0108880621508816 4.86084361153211e-05 1.39948925284165e-30)
(-0.0076361369258731 4.02395359087599e-05 -1.21924354198008e-20)
(-0.00450707826766516 3.16769398023567e-05 1.84744375434177e-20)
(-0.00150300750115173 2.33001701049149e-05 -6.2260012719049e-21)
(0.00137477775240706 1.59064332713557e-05 0)
(0.00412577435349173 9.41655277265104e-06 1.25240302756272e-20)
(0.00674988357785945 3.39304927224e-06 -1.24670171326593e-20)
(0.00924732088594966 -2.2183089337774e-06 1.45086690779222e-30)
(0.0116185982023332 -7.47422960963511e-06 0)
(0.0138643157713934 -1.24295316564435e-05 -2.48893705529273e-20)
(0.0159850955232165 -1.71346755920437e-05 2.48083661641988e-20)
(0.0179814674694517 -2.16374687348486e-05 0)
(0.0198537869226434 -2.59832895591885e-05 0)
(0.0216021320831201 -3.02153751861576e-05 0)
(0.0232262246091153 -3.43762693164186e-05 0)
(0.0247253082497884 -3.85068946316983e-05 0)
(0.0260980768409234 -4.26499291685616e-05 8.29533673016704e-15)
(0.0273424913049562 -4.68461248000233e-05 1.65525687173909e-14)
(0.028455737205303 -5.11425820273971e-05 8.25545738536521e-15)
(0.0294338857497724 -5.55814949161035e-05 -1.99201593557743e-19)
(0.0302719684668967 -6.02218305161445e-05 9.96816224720016e-20)
(0.030963243083816 -6.51067325830037e-05 -1.00072175173304e-19)
(0.0314996889154635 -7.03227555197344e-05 1.00139305022144e-19)
(0.0318701708235611 -7.59093036899516e-05 8.41402451223135e-15)
(0.0320627962893288 -8.20318349852943e-05 8.35972268878738e-15)
(0.0320594722642582 -8.87008607568143e-05 -1.0115317713053e-19)
(0.0318452487578218 -9.61933016461672e-05 1.01759203720067e-19)
(0.0313910705230386 -0.00010436097213633 -2.04292691556704e-19)
(0.0306700521050405 -0.000113867367199453 1.02606617204175e-19)
(0.0296249900163904 -0.000124091511561615 -2.06944658384884e-19)
(0.0282181751156485 -0.000136780338115834 4.16569215068924e-19)
(0.0263376256774473 -0.000149939683955286 -2.09890751310046e-19)
(0.0239433730845526 -0.000168301072522743 -2.12596227922122e-19)
(0.0207834581254194 -0.00018529766220084 4.30049141319676e-19)
(0.0168854029382426 -0.000213659722369787 0)
(0.0113971712847028 -0.000227142774623874 -2.71781294669691e-23)
(0.00441089655908532 -2.74379615756006e-06 0)
(0.0034623389356503 0.000431367223999786 2.29392236175987e-19)
(0.00597909979155375 0.00158995254142724 -5.80818210087652e-17)
(0.00831302055243136 0.00300202729353704 -6.12295353875246e-22)
(0.0115850837312095 0.00510697715885251 -1.07527742169305e-16)
(0.0152838445874635 0.00784222870802254 -1.03593748737815e-16)
(0.0196321498060662 0.0113733825938733 9.8440910221501e-17)
(0.0251010488294876 0.0159105231604017 -9.33601327769971e-17)
(0.0313193372285151 0.0211504532510982 8.86224601309123e-17)
(0.0380119398035157 0.0267960353270948 8.42741262085104e-17)
(0.0450681992930971 0.0326398566971694 0)
(0.0524955771777511 0.0385047855552288 0)
(0.0591879466412775 0.0436175925639915 -7.3684659541572e-17)
(0.0647443162405979 0.048054436013951 -7.06658087744496e-17)
(0.0700806756127496 0.0525762969835272 -6.7549321342756e-17)
(0.0756578734039057 0.0575558157803298 -6.42649128504814e-17)
(0.0820536706473943 0.0634381445375766 -6.07665864471469e-17)
(0.0904557800834598 0.0711055242741305 5.68629737514993e-17)
(0.104182071991645 0.0822839482127131 5.25890698849257e-17)
(0.124224113298292 0.0958263957116979 -4.84412200418113e-17)
(0.149876706594264 0.109612893195066 4.43248525776175e-17)
(0.186278370675471 0.123750525395589 4.01471391728798e-17)
(0.234539702986941 0.132720452928406 -3.57905621608933e-17)
(0.288758105050207 0.123051534773707 0)
(0.278283956432086 0.071990286472392 1.43303858305882e-17)
(0.195881646278449 0.0227121003284976 0)
(0.109055707976921 0.00207169805729364 -2.07375162752514e-18)
(0.0824120977956156 -0.000597396219338072 0)
(0.330317780467147 -0.00164392579891098 0)
(0.360945152083473 -0.00857680084427496 -7.09971689321715e-22)
(0.294812276327594 -0.0305154441792991 -4.84302672639788e-21)
(0.0988484601135361 -0.0216309410533549 1.69294327357135e-14)
(-0.0735652458669232 0.0375306842188582 1.89586714757688e-14)
(-0.0924943028569149 0.0575019305971298 -5.8846965292294e-17)
(-0.0669589421944927 0.0484670439975069 1.82262647479642e-23)
(-0.0536170856897565 0.0426467239245861 -6.20700687927287e-17)
(-0.0451594138807508 0.0378977214908158 1.84329853568625e-14)
(-0.0419976973346353 0.0357251065272956 1.92223336597968e-14)
(-0.0399823343653141 0.0334656637586008 -3.53834772612323e-20)
(-0.0398295930717546 0.0325782446222232 3.71764144210044e-20)
(-0.0405452017150308 0.0325198752827701 -3.85844997095323e-20)
(-0.0425804926213694 0.0336647740512218 -8.15495477397728e-17)
(-0.0463044443681092 0.0362655556030774 1.66258012787895e-16)
(-0.0517593747946544 0.0403240296810433 -8.17882610046256e-20)
(-0.0582957996599301 0.0450945239415996 8.40607756523433e-17)
(-0.0654205036477246 0.0495481018151303 -8.40852158241541e-17)
(-0.072988598929935 0.0531632143320119 1.62780088433554e-19)
(-0.0805226975340686 0.0552020390272506 -1.61866112811158e-19)
(-0.0875361907829992 0.054975606640977 -8.18695735174444e-17)
(-0.0942138044192884 0.0524135805345188 8.09692217648446e-17)
(-0.100810344812624 0.0480683984224951 7.96907106958206e-17)
(-0.106818707509371 0.0420341653762601 -1.52112236174822e-19)
(-0.111888945787687 0.0343678315489239 3.81680291370821e-17)
(-0.116153061860947 0.0253727828118724 -3.7454209854446e-17)
(-0.120669546227195 0.0154686509437217 5.32226279019004e-15)
(-0.133081292848412 0.00638262780930963 4.9284605145472e-15)
(-0.153742511556859 0.00214825855984875 -2.96547025015361e-23)
(-0.16833068470212 0.00139915972447752 -4.17851244836786e-31)
(-0.175448137350502 0.000824114725340026 0)
(-0.179008628574994 0.000471936884686342 4.71242696413212e-15)
(-0.179875967622633 0.00022323510331731 4.56278078570806e-15)
(-0.178835302890393 3.00316866745322e-05 2.093623606344e-19)
(-0.176252770215386 -0.000126019076883255 -1.03151897629462e-19)
(-0.172438876475902 -0.000255590467427605 -1.03016583638889e-19)
(-0.167593448507175 -0.000364701566009296 1.02021922070969e-19)
(-0.161886613154774 -0.000457504087003256 7.44664766168355e-31)
(-0.155456513701053 -0.000536127244047872 -4.29830103982067e-15)
(-0.148425397613667 -0.000602093549826053 -4.27631668746678e-15)
(-0.140900843210553 -0.000656594689021678 0)
(-0.132979531407039 -0.000700640543800191 5.27208291314867e-20)
(-0.124748214969007 -0.000735181312489316 3.15839874193643e-22)
(-0.11628476570977 -0.000761110146044305 -5.37576773160633e-20)
(-0.107658819812365 -0.000779299247221733 -5.48786571584443e-20)
(-0.0989323023155087 -0.000790582353206738 1.11241977235287e-19)
(-0.0901599662131785 -0.000795761316314152 4.91582398379708e-15)
(-0.0813898668373703 -0.000795591706167084 4.97350955908091e-15)
(-0.0726638910020449 -0.000790781705408128 5.86173332894161e-20)
(-0.0640182480765079 -0.000781985321190287 0)
(-0.0554839908734387 -0.000769800452805663 -3.06618761956364e-20)
(-0.0470875105351416 -0.000754767841308428 3.11821442069833e-20)
(-0.0388510238715756 -0.000737371556991073 5.32884679366676e-15)
(-0.0307930424772216 -0.00071804005180889 5.42787181344566e-15)
(-0.0229288137719599 -0.000697148155458812 -1.67203919965628e-20)
(-0.0152707485315109 -0.000675024081548297 -6.02094009175335e-23)
(-0.00782881572395549 -0.000652172581563276 -5.89049942977776e-23)
(-0.000610947469601644 -0.000628755562510403 1.77507837219516e-20)
(0.00637681153961023 -0.000604519822430916 -4.4753723298608e-21)
(0.0131298581043803 -0.000579748649916741 4.45409564319385e-21)
(0.0196446186891888 -0.000554572146689676 -4.4616039894773e-21)
(0.0259186000094667 -0.000529092472218244 4.44604303417447e-21)
(0.0319500239784408 -0.00050363072394431 1.78274393160369e-20)
(0.0377375872856764 -0.000478227446640681 -1.77855754311567e-20)
(0.0432803562510745 -0.000452912454964414 0)
(0.0485775028317803 -0.000427699848270206 0)
(0.0536281731216989 -0.000402583589828462 0)
(0.058431302280854 -0.000377540397970132 0)
(0.0629854593749947 -0.000352529595489473 0)
(0.0672886613995482 -0.000327492259598192 0)
(0.0713382092043705 -0.000302352342461307 0)
(0.0751304572173718 -0.000277011653290145 7.25469164454602e-20)
(0.0786606363970729 -0.000251353508362601 -6.04165926329455e-15)
(0.081922512442904 -0.000225229278510649 -1.21797098472923e-14)
(0.0849082094645844 -0.000198470440144885 -6.14471668968363e-15)
(0.0876076119574463 -0.000170854214711517 -1.47893263722045e-19)
(0.0900082761430472 -0.000142141882378965 -1.35989144291203e-22)
(0.0920942223285909 -0.000111989583303439 7.49125431327522e-20)
(0.0938462796150205 -8.00632141167583e-05 7.56639722263234e-20)
(0.0952392653646501 -4.58248900350173e-05 -6.32143614589609e-15)
(0.0962445216269831 -8.80202966305556e-06 -6.45245518624274e-15)
(0.0968193460138408 3.15368030504223e-05 7.78853525748259e-20)
(0.0969281832284837 7.55029640322836e-05 0)
(0.0965101620368055 0.00012559115910354 1.59842524382499e-19)
(0.0954961226535656 0.000182659596886853 -1.61777996250314e-19)
(0.0937655140063488 0.000251156107479791 -1.64730081080477e-19)
(0.0912107817397729 0.000330728011246583 1.6748936047204e-19)
(0.08759984839361 0.00043174072663159 0)
(0.082770288353347 0.000550687201297833 0)
(0.0762059130749454 0.000714758723844091 1.81980517387703e-19)
(0.0676966922656493 0.000921649271093346 -5.13953183343468e-22)
(0.0555528797589342 0.00123473581508736 1.99874456659492e-19)
(0.0400767920330234 0.00235100990009763 0)
(0.0354145329628269 0.00426709309673403 -1.66102311397493e-22)
(0.038613720101553 0.00800561018233635 0)
(0.0432055780797613 0.0125823068867733 5.14009591012735e-17)
(0.0495328393429396 0.0186026546328121 -9.83372764602791e-17)
(0.0570208523553336 0.0260439832922788 -1.83690283395855e-19)
(0.0658980185352994 0.0352248665322218 1.74598499134195e-19)
(0.076969666171535 0.0465331618538509 1.65976257950719e-19)
(0.0898154168921121 0.0594524828279727 -8.11001976065734e-17)
(0.10404903427044 0.0733841847105074 -1.61892772650687e-19)
(0.119425195579281 0.0878825419216407 -7.38901887070394e-17)
(0.135954919176652 0.102563272125725 0)
(0.151984947882361 0.116071999985101 0)
(0.166424711598631 0.128415164965607 6.73028006952528e-17)
(0.180134914466206 0.140942479930721 6.54219166565502e-17)
(0.194006292355602 0.154541236794048 6.33908153001607e-17)
(0.209176446336725 0.17020674953577 3.90236390781463e-20)
(0.227744758233654 0.18973810301359 -5.7800802542857e-17)
(0.255558316302827 0.216435907866694 -1.0731649646568e-16)
(0.296205983317046 0.248129333743505 0)
(0.349954194549037 0.279873525154783 0)
(0.424113282700254 0.3097021775381 -3.86324329293261e-17)
(0.52129828262525 0.325501756436825 -3.29103203050311e-17)
(0.636826945372465 0.302436453145594 2.84983359031815e-17)
(0.676118837331882 0.19903300659039 -1.25683770315547e-17)
(0.582656860121504 0.0822034078094114 0)
(0.419045348162266 0.01609313647591 0)
(0.32845985643201 -0.000142756629954632 0)
(0.519470611264729 -0.00159210269089726 0)
(0.534273440342878 -0.0117437726214475 1.5035770637592e-18)
(0.473641290617335 -0.0438393201638191 0)
(0.240360971922781 -0.0473964311622884 -1.10147993723364e-14)
(-0.046747273556838 0.0327813020866394 -1.47481790450272e-14)
(-0.122132252855836 0.076290093316644 5.38503882753776e-17)
(-0.0963219156118795 0.0685925251145193 0)
(-0.0795024030104107 0.0624341611737201 6.89957488664643e-21)
(-0.0686673372575892 0.0571597494653426 -6.03688439448557e-17)
(-0.0646938431735312 0.0547420502375388 6.38966083383861e-17)
(-0.0625351400540705 0.0521774234176244 8.77665433231416e-23)
(-0.062925797086883 0.0514098572967877 -3.38489148987101e-20)
(-0.0646904870928318 0.0519268085115107 0)
(-0.0683890864251469 0.0542418827431393 7.14661745764173e-17)
(-0.0743821102943548 0.0585709660249093 -9.27035684961813e-22)
(-0.0824294394556473 0.0646497775387045 -6.71857714820609e-20)
(-0.0915139399132817 0.0712751521721877 6.45461794091857e-20)
(-0.100928852451202 0.0769321971298646 0)
(-0.110325846715725 0.0808078436724863 0)
(-0.119133636120772 0.0820386941685298 0)
(-0.127009862905125 0.080053046137107 0)
(-0.134324077338111 0.0749827934891261 -5.05586552246079e-17)
(-0.141299866648076 0.0676157107931787 -4.7563864582078e-17)
(-0.147556542190334 0.0582868835103774 8.82980201238871e-20)
(-0.153055631397235 0.0472516547349518 -8.8349795019648e-20)
(-0.158340121176234 0.0349886454859512 4.11623113724499e-17)
(-0.164967251685672 0.0219624674071267 1.95354617089425e-17)
(-0.178398524494025 0.00979769245272524 7.05530349861249e-20)
(-0.195566021178815 0.00384001455693145 1.566786590453e-23)
(-0.205846494875916 0.00230813747264946 0)
(-0.210032195607326 0.00120948777420428 0)
(-0.211108715733191 0.000536157987923048 0)
(-0.209736155375562 5.22028339158866e-05 0)
(-0.206606941568499 -0.000320151476655734 0)
(-0.202051560082313 -0.000619823767227174 0)
(-0.196335678392697 -0.000867588525714503 0)
(-0.189640773428314 -0.00107550702074534 0)
(-0.182128443463011 -0.00125094229865185 0)
(-0.173931188922204 -0.00139843524893961 2.45620005454143e-20)
(-0.165167116003626 -0.00152114460102251 -2.43574563860308e-20)
(-0.155940633813334 -0.00162160920677501 2.4523202723688e-20)
(-0.146345807992461 -0.00170194997069751 -2.44419188764378e-20)
(-0.136467189216749 -0.00176411813900373 0)
(-0.126380778580843 -0.00180991222964504 0)
(-0.116154620389181 -0.00184104723567498 2.50771723653578e-20)
(-0.105849305451766 -0.00185913823064328 1.36363522148527e-22)
(-0.0955184822777846 -0.00186571462775283 -2.54650457410029e-20)
(-0.0852093158776829 -0.00186220415960615 0)
(-0.0749629945419437 -0.00184993345022802 0)
(-0.0648152033217287 -0.00183012102783349 0)
(-0.0547966247755496 -0.00180387607710054 0)
(-0.0449334158232466 -0.00177219907317631 0)
(-0.0352476775937029 -0.00173598388672612 1.39394966261687e-20)
(-0.0257579086502889 -0.00169602099769742 -1.41185428197446e-20)
(-0.0164794315754315 -0.00165300311419093 -7.20883155830484e-21)
(-0.00742481534054202 -0.00160756365413356 -2.583718810298e-23)
(0.0013957748857971 -0.00156014392932946 -2.50443464334408e-23)
(0.00997415667795911 -0.00151090796862493 7.46376843000526e-21)
(0.0183038894563641 -0.00146006802752191 0)
(0.0263799249863372 -0.00140823385524822 0)
(0.034198339256469 -0.00135587785569725 0)
(0.0417562392739414 -0.00130317880309895 0)
(0.0490513597947883 -0.00125029959513025 7.71123254705219e-21)
(0.0560818837162464 -0.00119731152783451 1.95355209193743e-23)
(0.0628463157050998 -0.00114425896501212 -7.80178669832179e-21)
(0.069343229542587 -0.00109115132732422 0)
(0.0755711232514786 -0.00103795963340574 -1.5882406528527e-20)
(0.0815282301455623 -0.000984619492356735 1.59761805089547e-20)
(0.0872123537263472 -0.000931030225139263 -1.61459710071248e-20)
(0.0926206737863461 -0.000877052815373159 -3.36742634504151e-23)
(0.097749567109683 -0.000822509378884233 -1.64673632082177e-20)
(0.102594367708037 -0.000767174967023962 3.31121109957509e-20)
(0.107149163836889 -0.000710778257670672 0)
(0.111406449196733 -0.000652981514396713 0)
(0.115356897283705 -0.000593388232025053 3.4203114310421e-20)
(0.118988772087516 -0.000531495316403995 6.37341894513771e-23)
(0.122287733021062 -0.0004667264490266 -3.49261833284434e-20)
(0.125235693765134 -0.000398314551781773 -3.54235439444676e-20)
(0.1278109044098 -0.000325414345978728 3.58241800799335e-20)
(0.12998542078587 -0.000246839144390961 -3.63931509286546e-20)
(0.131726562656084 -0.000161267184893524 -6.76899052904284e-23)
(0.13299034715849 -6.71811792283585e-05 3.74781852360366e-20)
(0.133729182085831 3.66868939602372e-05 7.63766057631159e-20)
(0.1338742006818 0.00015485515862873 1.49673871446272e-22)
(0.133347499099908 0.000290789614944359 -7.88837205049933e-20)
(0.132022583068958 0.000452894716811192 0)
(0.129773437045585 0.000645009201769284 -8.2437248574282e-20)
(0.126358647355683 0.000885597510158725 8.43784576166251e-20)
(0.12157392855309 0.0011805590834184 8.71323511786507e-20)
(0.114886704911918 0.0015756470906234 -9.00428924318763e-20)
(0.10598457859864 0.00210526929254389 0)
(0.0932757418019022 0.00285474482550949 0)
(0.0764810965508338 0.00496911105543209 3.4284327303024e-18)
(0.0688900947765552 0.0086174750688304 2.77925120788246e-17)
(0.0700653026366074 0.0143796221308715 1.03961777216899e-19)
(0.0741023804784667 0.0212040678485985 -2.53266595281735e-17)
(0.0805304266729129 0.0296468110140054 1.55254216454258e-21)
(0.0887147518010027 0.0397071530973799 0)
(0.0987834116983639 0.0517336677808174 0)
(0.111497560193843 0.0660390163709962 8.36900463753271e-20)
(0.126628088444437 0.0821677975137661 -8.05826802626641e-20)
(0.143801447761441 0.0995219744962031 6.8646359264684e-20)
(0.162747016552101 0.117653226271064 3.87124224572102e-17)
(0.183431162229572 0.136131793463581 -3.77953371509745e-17)
(0.204394901005281 0.153863370588379 0)
(0.224320259788479 0.170919564664291 -3.58767321683719e-20)
(0.243771706038887 0.188581826683263 3.57510148320541e-20)
(0.263651265226774 0.207793274418806 0)
(0.285184950230065 0.229626256667399 3.54050325093059e-17)
(0.310536379204147 0.255815249332897 0)
(0.345690006108517 0.289005514034237 3.21387452394422e-17)
(0.395583466820701 0.326608809701524 -3.54274245730597e-21)
(0.460883836725312 0.362713253884322 3.3385747213779e-21)
(0.547703756495053 0.392715700608627 2.32849551484212e-17)
(0.657968403124521 0.402179836228828 1.95999965507015e-17)
(0.78808570204188 0.365864825393296 -3.37071855744922e-17)
(0.86364418894386 0.250977948265485 7.75966199127916e-18)
(0.815936667754199 0.118099191331916 0)
(0.668663443903956 0.0310952260702087 1.1735212374283e-18)
(0.551723079174747 0.00345938578787518 -6.68252593585933e-22)
(0.639751832007985 -0.000476859988992775 4.65009369764432e-22)
(0.638665729747125 -0.0132454536386069 -4.60696664716144e-22)
(0.589975220010148 -0.0504650392407371 3.87208848344579e-18)
(0.372146494753805 -0.0682116706198117 0)
(0.0263828211120168 0.0118633886420416 -3.06127136171789e-17)
(-0.123231528692689 0.0796100049819016 -4.20333595123489e-17)
(-0.111543731053008 0.0781914709840899 0)
(-0.0956391929287897 0.0740656862949516 0)
(-0.084885636355752 0.0700567735992518 4.81171286593582e-17)
(-0.0811887852349129 0.068352050246894 -5.13442172157157e-17)
(-0.0796105316581485 0.0662517070621493 5.34233723113773e-17)
(-0.0807684586674933 0.065963716455184 -2.66489794740299e-20)
(-0.0834905973973164 0.0671342787081529 0)
(-0.0882690531302496 0.0702933691923816 -5.38393657435196e-17)
(-0.095265324933796 0.0754593605281183 -5.15641402898423e-17)
(-0.103938967155988 0.0820744192657697 4.72889400911717e-20)
(-0.113132431667147 0.0887136292098123 -4.49598509245897e-17)
(-0.122208135925104 0.0937630715193915 -4.12292504462202e-17)
(-0.130883399014644 0.0964565278272742 3.78552742878564e-17)
(-0.138797251767164 0.0961322060158962 -3.46477767891201e-17)
(-0.145859130409594 0.092463517208855 0)
(-0.152538790126423 0.0856815775029608 2.95075011231214e-17)
(-0.158996705865072 0.0766030049444543 5.37448731434155e-20)
(-0.164938997898615 0.0656458172255036 -2.58702732674755e-17)
(-0.170447509703892 0.0531200872546114 -1.22171732072805e-17)
(-0.176077802614892 0.0395275188861559 -1.17863060470975e-17)
(-0.183058761736325 0.0253065050196285 -5.51270278713909e-18)
(-0.195258028507967 0.0119097378732635 1.28003817295457e-18)
(-0.208874346445965 0.00507793320143581 -8.85588312670619e-24)
(-0.216362232665689 0.00290551952942562 -3.37181570696926e-20)
(-0.218979699193057 0.00138804480852467 -3.18945116256727e-20)
(-0.218847216019081 0.000442971875033609 0)
(-0.216486716472913 -0.00024656817837377 0)
(-0.212491023033762 -0.000777338681536687 -2.88450997149298e-20)
(-0.207139809873451 -0.00120642149171304 2.79677649714766e-20)
(-0.200680605775535 -0.00156185958862062 -2.76013608372964e-20)
(-0.193283061580269 -0.00186024927590386 2.70243131539858e-20)
(-0.185099425465162 -0.00211142180276109 0)
(-0.17625626389912 -0.00232198721493522 0)
(-0.166867141641811 -0.00249650728780801 0)
(-0.15703305597251 -0.00263871285254015 0)
(-0.146845322527931 -0.00275172273014719 1.32445757975823e-20)
(-0.136386269313539 -0.00283839938475624 -1.31904214708766e-20)
(-0.125730068096978 -0.00290137538731889 -1.33168014336462e-20)
(-0.114943255035984 -0.00294314720227696 2.66974629089634e-20)
(-0.104085180552454 -0.00296605968079551 -1.34019849762956e-20)
(-0.0932084774106352 -0.00297232432650196 0)
(-0.0823594884816736 -0.00296400178762166 0)
(-0.0715787440224745 -0.00294300253805379 0)
(-0.060901412898756 -0.0029110795456626 0)
(-0.0503577814163737 -0.00286982708419054 -7.07665248567085e-21)
(-0.0399737127351894 -0.00282068272374873 -1.6079021771629e-15)
(-0.0297711006830976 -0.00276493068626794 -1.63613361606169e-15)
(-0.0197683091041641 -0.00270370706684259 -7.32684035712507e-21)
(-0.00998058811806128 -0.00263800990174082 -7.45821107569147e-21)
(-0.000420466771963795 -0.00256870665245857 7.52591484163885e-21)
(0.00890184534689571 -0.00249640729760928 0)
(0.0179780792635828 -0.00242167054588918 0)
(0.0268017075412476 -0.0023451401780241 0)
(0.0353676074435505 -0.00226734523744546 0)
(0.0436717587304485 -0.00218862267934854 0)
(0.0517111279201002 -0.00210923259549146 0)
(0.0594832979928199 -0.00202939457139613 0)
(0.0669862974848484 -0.0019492229813476 0)
(0.0742184614575501 -0.00186878275708787 0)
(0.0811781913076073 -0.00178808459390395 0)
(0.0878638047942579 -0.00170708275298989 -8.31953504660876e-21)
(0.0942733495271312 -0.00162567778193335 1.89669811160408e-15)
(0.100404436880625 -0.00154371513613534 1.9082103766228e-15)
(0.106254050314927 -0.00146098213155298 -8.5667445133051e-21)
(0.111818364169188 -0.00137720559091222 1.73585575793387e-20)
(0.117092509124378 -0.00129204126764155 -1.75206664586395e-20)
(0.122070364142987 -0.00120507077790231 1.77598735716344e-20)
(0.126744221678089 -0.0011157770942736 -1.79390361149491e-20)
(0.131104547636838 -0.00102354523100353 0)
(0.135139429845221 -0.00092760663566298 1.8429801562633e-20)
(0.138834340456541 -0.000827059872474874 -1.86417296449571e-20)
(0.142171097721251 -0.000720740107156149 0)
(0.145127815403547 -0.000607307458359553 0)
(0.147676682935913 -0.000484965164316517 0)
(0.149784811131838 -0.000351635354056507 0)
(0.151409474246904 -0.000204883685538351 0)
(0.152498972117903 -4.22125541621315e-05 0)
(0.152986589127019 0.000142686487954534 0)
(0.152794010358717 0.000355704264739449 -4.26463074390689e-20)
(0.151800927617902 0.000608481666342259 8.69791457878588e-20)
(0.149882477732756 0.000909430132878654 -8.89900784266598e-20)
(0.146812593140269 0.00128339857925827 4.56087233832617e-20)
(0.142388118911999 0.00174687528916409 0)
(0.136125022965229 0.00235895898810107 0)
(0.127711587734411 0.00318871903217208 0)
(0.115867656193523 0.00434605738414863 -5.4104060728387e-20)
(0.0999509961925883 0.00713284844630913 -3.62232399709884e-18)
(0.0911200275397678 0.0118069510992028 -7.37284827311385e-18)
(0.0906758911692635 0.0186076214310128 1.41026553858714e-17)
(0.0937634144166735 0.0265698999979478 5.24063513560251e-20)
(0.099678065218695 0.0361993455624667 5.10859271236105e-17)
(0.107703803839879 0.0474783683175104 -4.79418621676171e-20)
(0.117883851474957 0.0607355577538064 4.59337004197626e-20)
(0.130866061805385 0.0761900012418001 2.26299479590296e-17)
(0.146521123759669 0.093440731621435 -2.17976065595754e-17)
(0.164502243411541 0.111936430763069 -2.11803609763485e-17)
(0.184546708716636 0.13126329678793 -4.01432634333841e-20)
(0.206573150889415 0.150998258584847 4.87502273295496e-20)
(0.229319613148804 0.170305690903448 -1.94656557142656e-20)
(0.251499774442348 0.189359723543731 3.89068776620408e-20)
(0.273541436439065 0.209348703551463 -1.98982865750858e-17)
(0.296287453861787 0.23117028225044 1.92476260803044e-20)
(0.320943005260882 0.255859804763174 -1.96222162724713e-17)
(0.349581602402205 0.284923791750046 -9.23601268420891e-21)
(0.387728391597245 0.320164062933355 8.9141321004455e-21)
(0.440597396228453 0.358662892438154 2.00393471434791e-21)
(0.509010523584122 0.394279144783933 -1.89610326254958e-21)
(0.598034625026381 0.421188656808027 0)
(0.708828495328372 0.424544212655823 0)
(0.837813453228729 0.380680758095883 -2.62005620823849e-20)
(0.924427517089513 0.264300947143996 -4.56373003401782e-18)
(0.909733671633723 0.132099745784447 0)
(0.801251310524982 0.0402500491370469 -7.37017100723552e-19)
(0.689486955345463 0.00748162044661288 0)
(0.714568590339607 0.0012429007787769 0)
(0.703870956276305 -0.0135665702494575 6.43524988918685e-19)
(0.662676343436667 -0.0524620057979839 5.81138887935035e-21)
(0.475883459372638 -0.0806246282637807 1.72735215625022e-21)
(0.117611127723192 -0.0134591156452427 2.10717831705212e-17)
(-0.100220009427756 0.0716587517277832 2.92552715319187e-17)
(-0.114183431269116 0.0795324330293529 0)
(-0.102273431201994 0.0782490204410064 0)
(-0.0929056815459168 0.0761425476459998 3.30030157259935e-17)
(-0.0901155337397792 0.0756302059498671 3.54598996781309e-17)
(-0.0894404160845291 0.0743813029572847 -3.68447599877512e-17)
(-0.091334030404398 0.0746998466324912 0)
(-0.0946989718743032 0.0763959527425991 -3.74507630663385e-17)
(-0.0999103492893739 0.0799775861091522 5.9750909697666e-22)
(-0.106979945536314 0.0853026817977217 -3.43887134762489e-17)
(-0.115293492389803 0.0917023826548129 3.17928804712866e-17)
(-0.123815559596206 0.0977912128138285 2.97446316027362e-22)
(-0.132106375487103 0.102061030619774 2.63529386141014e-17)
(-0.139989041901236 0.103841747112571 -2.3929126874928e-17)
(-0.147246318604822 0.102604082290683 4.56969317103773e-20)
(-0.153869260948753 0.0981143471355994 -3.91490930142708e-20)
(-0.160283997847153 0.0905788247379812 0)
(-0.166575021036107 0.0807653545591551 1.74057996258009e-17)
(-0.172486717010858 0.0691178662336325 1.64291751979801e-17)
(-0.178116280935931 0.0559713876590314 0)
(-0.183932221806263 0.0418347102302891 -7.4915386533695e-18)
(-0.190812970572761 0.0271786610796613 2.78756521232557e-20)
(-0.201648172972352 0.0133742454058834 -8.5105052278756e-19)
(-0.212832435352702 0.00607421003641048 2.85729047440484e-24)
(-0.218701798262528 0.00335746206090759 -2.17225887253712e-20)