/*--------------------------------*- C++ -*----------------------------------*\
  =========                 |
  \\      /  F ield         | OpenFOAM: The Open Source CFD Toolbox
   \\    /   O peration     | Website:  https://openfoam.org
    \\  /    A nd           | Version:  7
     \\/     M anipulation  |
\*---------------------------------------------------------------------------*/
FoamFile
{
    version     2.0;
    format      ascii;
    class       volVectorField;
    location    "6000";
    object      wallShearStress;
}
// * * * * * * * * * * * * * * * * * * * * * * * * * * * * * * * * * * * * * //

dimensions      [0 2 -2 0 0 0 0];

internalField   uniform (0 0 0);

boundaryField
{
    bottomWall
    {
        type            calculated;
        value           nonuniform List<vector> 
120
(
(-0.00496920237696901 4.15344672909906e-05 5.59310209515679e-23)
(-0.00602318961096476 0.000166544600748639 1.15183922946408e-19)
(-0.00424259024168028 0.000518199096759588 0)
(-0.000258740080049222 0.000206758122321974 1.00095746235025e-18)
(0.00222208127268469 -0.000843841620199274 1.22915296483928e-22)
(0.00209631076468064 -0.00113584931211127 4.44175884875675e-22)
(0.00142978049509343 -0.000929087339315195 2.21219074369216e-18)
(0.00109549815677037 -0.000791425038841794 -2.24161171782339e-18)
(0.000866086299378554 -0.000670778286537025 6.35020495452391e-16)
(0.000757390469647505 -0.000600046957486776 6.36755679499254e-16)
(0.000666301270789701 -0.000527119852402419 -5.57295316486302e-22)
(0.000618248225455368 -0.000483356687003138 1.10985368312082e-21)
(0.000587851817036198 -0.00045601425026992 -1.11170847337226e-21)
(0.000580381064123314 -0.000448360064342563 2.27059866233067e-18)
(0.000599697639402382 -0.000461862826017287 2.267108287218e-18)
(0.00064699628982585 -0.000495458052542893 2.20315284313848e-21)
(0.000709474676369428 -0.000537205735709513 2.23751567082326e-18)
(0.000774204581259123 -0.00057148241692679 -4.45117235699945e-18)
(0.000838970930927056 -0.000593113858399789 2.20454739972423e-18)
(0.000896091117433355 -0.000594872286184862 2.19805253897447e-18)
(0.000935350560225898 -0.000570397928518625 -2.17798321680286e-18)
(0.000960347858402982 -0.000522579982867208 2.15579732065284e-18)
(0.000984104311627767 -0.000463099090555595 8.52323243640229e-24)
(0.00100394204708035 -0.000394498602844946 -2.10495369617155e-18)
(0.00101696675268389 -0.000316930544153707 2.10648587667354e-35)
(0.00102406342409432 -0.000231609510826827 0)
(0.00100090642367808 -0.000138109884102399 1.49334607239265e-16)
(0.00109262345986907 -5.77896662827092e-05 1.49012454527664e-16)
(0.00139268934707247 -2.42407589023087e-05 -4.62942466835791e-25)
(0.00165104530129877 -2.19109179754964e-05 -1.34658780412626e-32)
(0.00179821901891967 -1.90241876083346e-05 -0)
(0.00189457698465989 -1.72954479584241e-05 1.55504263852906e-16)
(0.00195162360457313 -1.60140574706375e-05 1.57036862776832e-16)
(0.00198096375094698 -1.48409428511308e-05 0)
(0.00198716833560451 -1.3697006053878e-05 -1.80672514655297e-53)
(0.00197441049164439 -1.25686494620134e-05 -1.17311536571234e-51)
(0.00194566339565947 -1.14687166567307e-05 -0)
(0.00190326111554003 -1.0379281243621e-05 1.83341421004293e-21)
(0.00184912715450752 -9.31070948412739e-06 -1.52627160518264e-16)
(0.001785011837104 -8.27364300148818e-06 -1.5565009868038e-16)
(0.00171249503599774 -7.27831727135963e-06 1.87232565594661e-21)
(0.00163303455382972 -6.33351356282045e-06 1.90500491892568e-21)
(0.0015479687378108 -5.44567973231274e-06 -1.91626544143226e-21)
(0.00145852151777756 -4.61923494075497e-06 1.95182343845479e-21)
(0.00136580384001856 -3.8564623660367e-06 -1.96618387423857e-21)
(0.00127081419116828 -3.1579698241912e-06 -0)
(0.00117444178739375 -2.522864692643e-06 1.74812881530393e-16)
(0.00107746980964853 -1.94915115265856e-06 1.78393220321454e-16)
(0.000980581141616022 -1.43396445443287e-06 2.0828619011856e-21)
(0.000884364355734612 -9.73848860870796e-07 -1.05364956839816e-21)
(0.000789321086748029 -5.64964337227431e-07 1.07326711173516e-21)
(0.00069587357234431 -2.03264502873503e-07 -2.17166754561695e-21)
(0.000604372497237326 1.15365728809239e-07 1.8306479776632e-16)
(0.000515104832809143 3.94996649722497e-07 1.86200380977383e-16)
(0.000428301406024353 6.39575104746787e-07 5.64344818045313e-22)
(0.000344144370921323 8.52657531045235e-07 -1.81632275798784e-41)
(0.000262773728411181 1.03860288770294e-06 -3.37744861817668e-32)
(0.000184294339703881 1.2125471474876e-06 2.94242028703163e-22)
(0.000108780170357151 1.3906783523423e-06 -4.45846656249979e-22)
(3.62816642428785e-05 1.56148666273296e-06 1.50253148229425e-22)
(-3.3169592532417e-05 1.6999557500192e-06 0)
(-9.95607298656151e-05 1.80910442139708e-06 -3.02244765813824e-22)
(-0.000162889379928408 1.90329207570788e-06 3.00868856676993e-22)
(-0.00022316096690087 1.98450370821082e-06 -3.50143165407022e-32)
(-0.000280387844810933 2.05471523596278e-06 -0)
(-0.000334584503153921 2.11573382488107e-06 6.00660257975527e-22)
(-0.000385765955220837 2.16915557538724e-06 -5.98705363493793e-22)
(-0.000433944994880071 2.21641404643772e-06 -0)
(-0.00047913019965134 2.25879187219226e-06 0)
(-0.000521323458429011 2.29743132941828e-06 0)
(-0.000560518055301915 2.33337348068463e-06 0)
(-0.000596695739443973 2.36753124434831e-06 0)
(-0.000629824989043817 2.40077381988759e-06 -2.00193920946779e-16)
(-0.000659856592044029 2.43381984034747e-06 -3.99468108973839e-16)
(-0.000686722626255578 2.46744233753712e-06 -1.99231359143589e-16)
(-0.000710328270387083 2.50215260337274e-06 4.80737921939984e-21)
(-0.000730553618801956 2.53874251985527e-06 -2.4056403727737e-21)
(-0.000747235942673114 2.57740100524082e-06 2.41506643907118e-21)
(-0.000760181679470346 2.61918702899434e-06 -2.41668649661523e-21)
(-0.000769122056254719 2.66384712134543e-06 -2.03057679526712e-16)
(-0.000773770085614704 2.71397126124666e-06 -2.01747097901373e-16)
(-0.000773689058835698 2.76869626869342e-06 2.4411558753254e-21)
(-0.00076851827846105 2.83262527106696e-06 -2.45578242107942e-21)
(-0.000757556320779039 2.89630006692677e-06 4.9302514945822e-21)
(-0.000740154632608642 2.97000969112647e-06 -2.47623391858437e-21)
(-0.000714932072600643 3.02951957196194e-06 4.99425602689547e-21)
(-0.000680979408172329 3.10951711285058e-06 -1.00531886166915e-20)
(-0.000635592403665463 3.14494711461396e-06 5.06535671586654e-21)
(-0.000577809183956886 3.233055522778e-06 5.13065383855666e-21)
(-0.000501544454400934 3.18905717484642e-06 -1.03785186198652e-20)
(-0.000407474010311767 3.18678580619564e-06 3.18291209193344e-26)
(-0.000275174328549624 2.40951027579252e-06 6.55890413877734e-25)
(-0.000106772418467031 -1.72894748155182e-06 -2.93873587705572e-39)
(-8.45819828152381e-05 -9.68688006190191e-06 -5.5417162029488e-21)
(-0.000147332919422616 -3.92285437073364e-05 1.42314299353474e-18)
(-0.000209237733084253 -7.65497193608396e-05 1.52179584772522e-23)
(-0.000300730939224428 -0.000133773383834112 2.78520441515239e-18)
(-0.000412416853742699 -0.000212381893720499 2.78952719908275e-18)
(-0.000554319794896906 -0.000320039634261547 -2.77138176299893e-18)
(-0.000744232453055618 -0.000466791543239257 2.7560229249431e-18)
(-0.000974026711911868 -0.000647784348717965 -2.74067601362662e-18)
(-0.00123725717447123 -0.000855997849895656 -2.72465366127033e-18)
(-0.00153097506473719 -0.0010855804169534 -1.08333559371782e-34)
(-0.00185498125489367 -0.00133040211338558 0)
(-0.00216865473832471 -0.00156352003873975 2.67851857629434e-18)
(-0.00246369828015278 -0.0017901237303869 2.66827129727793e-18)
(-0.00277994935740472 -0.00204091195001907 2.65806126628616e-18)
(-0.00314111360134166 -0.00233569449211555 2.6451308849088e-18)
(-0.00358154059168489 -0.00270080095693579 2.62693160584014e-18)
(-0.00417239339056887 -0.00318684659311861 -2.59360370562187e-18)
(-0.00508632727251429 -0.00388110674464317 -2.53366469704993e-18)
(-0.00635485214840666 -0.00471400535834974 2.4417884653683e-18)
(-0.00792091696216786 -0.00555417644716943 -2.30870841623213e-18)
(-0.00999753028005176 -0.00634961006800458 -2.12636316992955e-18)
(-0.0124876172275951 -0.00674883534045157 1.88679214467623e-18)
(-0.0148491255511239 -0.00607077914282737 1.20370621524202e-35)
(-0.0136818751024799 -0.00347098617482234 -7.05727195063523e-19)
(-0.00944497018181986 -0.00113103429205991 -1.88079096131566e-37)
(-0.00524812954219249 -0.000134448789091872 1.00031754911602e-19)
(-0.0039762854542406 3.60594808699439e-05 0)
)
;
    }
    topWall
    {
        type            calculated;
        value           nonuniform List<vector> 
120
(
(-0.0053402255573133 -1.4791574550691e-06 0)
(-0.0053337521264602 -1.40147861794969e-06 0)
(-0.00532331276349414 -1.33412750351578e-06 0)
(-0.00530922426466662 -1.27537701482582e-06 0)
(-0.0052917979325643 -1.22518193654029e-06 0)
(-0.00527135938939946 -1.18343188480667e-06 0)
(-0.00524823772975975 -1.14956151009714e-06 0)
(-0.0052227527003819 -1.12279212993926e-06 0)
(-0.0051952075586493 -1.10223823203359e-06 0)
(-0.0051658839891309 -1.08695727514595e-06 0)
(-0.00513503858388449 -1.07599683287156e-06 0)
(-0.0051029008143695 -1.068432262409e-06 0)
(-0.00506967221869387 -1.06339366861437e-06 0)
(-0.00503552668798962 -1.06009177533624e-06 0)
(-0.00500061194425812 -1.05784485470866e-06 0)
(-0.00496505197325229 -1.05608811822877e-06 0)
(-0.00492894990575682 -1.05437238818136e-06 0)
(-0.00489239111589611 -1.05236011424586e-06 0)
(-0.00485544641103101 -1.04981769485072e-06 0)
(-0.00481817516020084 -1.04660480698824e-06 0)
(-0.00478062824649512 -1.04266264958984e-06 0)
(-0.00474285076722446 -1.03800078685607e-06 0)
(-0.00470488438755883 -1.03268372283172e-06 0)
(-0.00466676936627275 -1.02681828512422e-06 0)
(-0.00462854611989992 -1.02054045921736e-06 0)
(-0.00459025665757939 -1.01401419198094e-06 0)
(-0.00455194518783748 -1.00739084450608e-06 0)
(-0.00451365898301247 -1.00085779296229e-06 0)
(-0.00447544849593715 -9.94559001252682e-07 0)
(-0.00443736744830777 -9.88665179523413e-07 0)
(-0.0043994725541758 -9.83294776527364e-07 0)
(-0.00436182327443859 -9.78588721736519e-07 0)
(-0.00432448108671688 -9.7462123330752e-07 0)
(-0.00428750911775606 -9.71500895224381e-07 0)
(-0.00425097121973677 -9.69254336204516e-07 0)
(-0.0042149315161523 -9.67955888038362e-07 0)
(-0.00417945352252661 -9.67595343497833e-07 0)
(-0.00414459972359251 -9.68209687070196e-07 0)
(-0.00411043058816727 -9.69766117004776e-07 0)
(-0.00407700495098191 -9.72276009069395e-07 0)
(-0.00404437764728865 -9.75677643726762e-07 0)
(-0.00401260308470138 -9.79997063181726e-07 0)
(-0.00398172727737347 -9.8508760913176e-07 0)
(-0.00395180166182696 -9.91171208931553e-07 0)
(-0.00392286407911664 -9.9777311949149e-07 0)
(-0.0038949504820672 -1.00505134850675e-06 0)
(-0.0038680997201385 -1.01344435659065e-06 0)
(-0.00384234923101405 -1.0222869381856e-06 0)
(-0.00381772140000261 -1.03171628332452e-06 0)
(-0.00379424137392724 -1.04179114062732e-06 0)
(-0.00377193212557151 -1.05247302757322e-06 0)
(-0.00375081366958636 -1.06375658377898e-06 0)
(-0.00373090399738595 -1.07564209383196e-06 0)
(-0.00371221923979704 -1.08813527928183e-06 0)
(-0.00369477402817331 -1.10125021330178e-06 0)
(-0.00367858187745063 -1.11500809811545e-06 0)
(-0.00366365554596696 -1.12943734939975e-06 0)
(-0.00365000739583624 -1.14457322116923e-06 0)
(-0.00363764974618448 -1.16045773089273e-06 0)
(-0.00362659521357202 -1.17713916498932e-06 0)
(-0.00361685704102406 -1.19467189439781e-06 0)
(-0.00360844940330982 -1.21311577457269e-06 0)
(-0.00360138770598868 -1.23253624497139e-06 0)
(-0.00359568885498241 -1.25300339051014e-06 0)
(-0.00359137150867633 -1.27459054255658e-06 0)
(-0.00358845618860312 -1.29737984549954e-06 0)
(-0.00358696606719059 -1.32149513278214e-06 0)
(-0.00358692772461557 -1.34694745098288e-06 0)
(-0.00358836387356865 -1.37418522253428e-06 0)
(-0.00359132990089831 -1.40354905352792e-06 0)
(-0.00359586896315246 -1.43459513241067e-06 0)
(-0.00360201310752278 -1.46718958351509e-06 0)
(-0.00360979369773201 -1.50140660931425e-06 0)
(-0.00361924557515586 -1.53737726331349e-06 0)
(-0.00363040718019148 -1.57518327418015e-06 0)
(-0.00364331919386331 -1.61488351699848e-06 0)
(-0.00365802412927963 -1.65652983541396e-06 0)
(-0.00367456605196531 -1.7001628601817e-06 0)
(-0.0036929900922129 -1.74580668710355e-06 0)
(-0.00371334179140363 -1.79346449080336e-06 0)
(-0.00373566631148358 -1.84311454877916e-06 0)
(-0.00376000750498527 -1.89470647129706e-06 0)
(-0.00378640687998379 -1.94815904206595e-06 0)
(-0.00381490248117162 -2.00335717550508e-06 0)
(-0.00384552765536432 -2.06014813341779e-06 0)
(-0.00387830969088263 -2.11833780328434e-06 0)
(-0.00391326832864862 -2.17768679296165e-06 0)
(-0.00395041414129385 -2.23790655376101e-06 0)
(-0.00398974678219412 -2.29865567364125e-06 0)
(-0.00403125311333236 -2.35953655109007e-06 0)
(-0.00407490522383424 -2.42009248073833e-06 0)
(-0.00412065835579375 -2.4798056394756e-06 0)
(-0.00416844877639441 -2.53809594822027e-06 0)
(-0.00421819159875846 -2.59432110468125e-06 0)
(-0.00426977866895869 -2.64777898537e-06 0)
(-0.00432307642909188 -2.69770969517835e-06 0)
(-0.0043779240920446 -2.74330482132656e-06 0)
(-0.00443413170583955 -2.78370949518218e-06 0)
(-0.00449147911377241 -2.81804604800679e-06 0)
(-0.0045497142184859 -2.84540748638856e-06 0)
(-0.00460855386628337 -2.86491822052963e-06 0)
(-0.00466768149442193 -2.87568274169343e-06 0)
(-0.00472675307865864 -2.87695539838801e-06 0)
(-0.00478538982866824 -2.86790977646739e-06 0)
(-0.00484319882047816 -2.84825055269405e-06 0)
(-0.00489975237939533 -2.81698583385543e-06 0)
(-0.00495461091059996 -2.77431945284255e-06 0)
(-0.00500733684270046 -2.72069696764608e-06 0)
(-0.00505749216875254 -2.65573071232036e-06 0)
(-0.00510463734835973 -2.58023273839394e-06 0)
(-0.00514835910060444 -2.49520174796985e-06 0)
(-0.00518827606137319 -2.40183497877092e-06 0)
(-0.00522404796641683 -2.30162625405976e-06 0)
(-0.00525538649551532 -2.1963105650047e-06 0)
(-0.00528206305880582 -2.08778149772662e-06 0)
(-0.00530391683128119 -1.97806159342963e-06 0)
(-0.00532085686757314 -1.86914499793389e-06 0)
(-0.00533286848127033 -1.76304223544039e-06 0)
(-0.00534000303514844 -1.6615130002614e-06 0)
(-0.00534239568142546 -1.56658352185815e-06 0)
)
;
    }
    inlet_half0
    {
        type            cyclic;
    }
    inlet_half1
    {
        type            cyclic;
    }
    outlet_half0
    {
        type            cyclic;
    }
    outlet_half1
    {
        type            cyclic;
    }
    sideRight_half0
    {
        type            empty;
    }
    sideRight_half1
    {
        type            empty;
    }
    sideLeft_half0
    {
        type            empty;
    }
    sideLeft_half1
    {
        type            empty;
    }
}


// ************************************************************************* //
