2 	0.0118766634903468 	4.16333634234434e-17 	1.01071528546659 	0.000151017455262012 	134.907827255722
2 	0.0201339998195326 	4.33680868994202e-17 	1.0107225688075 	0.000673162518794056 	35.4551013599194
2 	0.0286938265600376 	5.20417042793042e-17 	1.01072644461637 	0.00158622767613196 	16.3824498821951
2 	0.0375672248214896 	5.55111512312578e-17 	1.01073116920485 	0.00255748571069243 	10.0308379351621
2 	0.0467656816470147 	5.55111512312578e-17 	1.01073547263485 	0.00345627696157395 	7.11945000757887
2 	0.0563011048837711 	6.07153216591882e-17 	1.01073451853982 	0.00427836992840962 	5.53974137625793
2 	0.0661858385982333 	6.59194920871187e-17 	1.01072554985862 	0.0050369684387718 	4.57330884195023
2 	0.0764326790561829 	6.07153216591882e-17 	1.01070771734791 	0.00574419784201176 	3.92646947477327
2 	0.0870548912880936 	5.3776427755281e-17 	1.01068081187101 	0.00640970899849546 	3.46413389595778
2 	0.0980662262613554 	5.55111512312578e-17 	1.01064482020539 	0.00704092468919801 	3.11734469477651
2 	0.109480938681567 	5.3776427755281e-17 	1.01059983393701 	0.00764352189133965 	2.84766009443348
2 	0.121313805445942 	4.5102810375397e-17 	1.0105460113263 	0.00822187070562965 	2.63206822987233
2 	0.133580144772717 	4.77048955893622e-17 	1.01048355694647 	0.0087793710374146 	2.45598409014279
2 	0.146295836031327 	5.3776427755281e-17 	1.01041271529896 	0.00931869754015827 	2.3097266244231
2 	0.159477340299017 	5.3776427755281e-17 	1.01033377078666 	0.00984197593968915 	2.18662264599322
2 	0.173141721670501 	4.9439619065339e-17 	1.01024705000449 	0.0103509109799689 	2.08192707496818
2 	0.187306669348262 	4.0766001685455e-17 	1.01015292507614 	0.0108468810351487 	1.99217831716324
2 	0.20199052054208 	3.72965547335014e-17 	1.01005181758109 	0.0113310101099047 	1.91479788869248
2 	0.217212284207436 	4.16333634234434e-17 	1.00994420288622 	0.0118042249152273 	1.84783344610867
2 	0.232991665653523 	5.160802341031e-17 	1.00983061488934 	0.0122673027446307 	1.78978947815696
2 	0.249349092052728 	5.39932681897781e-17 	1.00971165133449 	0.0127209147154984 	1.73951365886853
2 	0.266305738884589 	5.908901840046e-17 	1.00958798003194 	0.0131656683843575 	1.69611994765823
2 	0.283883557348484 	6.19079440489223e-17 	1.00946093359158 	0.0136021186708215 	1.65896158276343
2 	0.302105302780516 	5.89805981832114e-17 	1.00933306117413 	0.0140308806102535 	1.62761364973686
2 	0.320994564111402 	5.55111512312578e-17 	1.00920319507492 	0.0144528824548061 	1.6016614766885
2 	0.340575794403482 	5.55111512312578e-17 	1.0090724610373 	0.0148690828989753 	1.58094732093401
2 	0.360874342506392 	5.55111512312578e-17 	1.00894213278464 	0.0152807560300271 	1.5654816098099
2 	0.38191648587238 	4.16333634234434e-17 	1.00881368336219 	0.0156896525309029 	1.55546752218185
2 	0.403729464573739 	3.81639164714898e-17 	1.00868886676932 	0.0160982225396936 	1.55134542910856
2 	0.426341516566396 	3.81639164714898e-17 	1.0085698490032 	0.0165099277171859 	1.55386494733445
2 	0.449781914245319 	3.81639164714898e-17 	1.00845941922999 	0.0169296840054362 	1.56419745674215
2 	0.474081002339048 	3.98986399474666e-17 	1.00836132424457 	0.0173644993652142 	1.58411016287541
2 	0.499270237192413 	3.98986399474666e-17 	1.00828078340012 	0.0178244092325585 	1.61623639889189
2 	0.525382227488298 	4.16333634234434e-17 	1.00822534566897 	0.018323878865724 	1.66449944522027
2 	0.552450776461161 	3.29597460435593e-17 	1.0082065098355 	0.0188839581001155 	1.73478237611056
2 	0.580510925656956 	1.73472347597681e-17 	1.00824125440639 	0.0195352915847739 	1.83570036482868
2 	0.609599000296116 	8.67361737988404e-18 	1.008347922254 	0.0203186508082005 	1.97622959555339
2 	0.639752656298307 	1.56125112837913e-17 	1.00853793782039 	0.021276306350333 	2.1551123804777
2 	0.671010929029842 	1.82145964977565e-17 	1.00881494532597 	0.0224575601779178 	2.36327720248689
2 	0.703414283836854 	1.17093834628434e-17 	1.0091628309809 	0.0239500849580765 	2.60367230001557
2 	0.737004668429646 	7.37257477290143e-18 	1.00958504220128 	0.0258961457776772 	2.88820728919202
2 	0.761419519668137 	1.73472347597681e-18 	1.00992450880118 	0.0275761823659338 	3.11336564802115
2 	0.779162313841247 	-3.46944695195361e-18 	1.01018312155438 	0.0289574762136195 	3.28368497365751
2 	0.807992742715647 	-6.93889390390723e-18 	1.0105932807101 	0.0313259411455262 	3.55061905191399
2 	0.845475280399478 	-1.38777878078145e-17 	1.01109057425669 	0.0344472323581509 	3.86122659309519
2 	0.884326557652536 	-1.38777878078145e-17 	1.01156351964253 	0.0373735100665245 	4.11388590884242
2 	0.924596372923088 	-6.93889390390723e-18 	1.01214046064413 	0.0397439115131386 	4.29125998001529
2 	0.966336321272196 	-8.67361737988404e-18 	1.01303769754613 	0.04125094647458 	4.37944272612564
2 	1.00959985787075 	-1.04083408558608e-17 	1.01422978178937 	0.0416526969408028 	4.3532190691241
2 	1.05444236361788 	-8.67361737988404e-18 	1.01552494940508 	0.0408585004130546 	4.18503571721992
2 	1.10092121293912 	-6.93889390390723e-18 	1.01683270710241 	0.0391233598304377 	3.86961999929092
2 	1.14909584382294 	-3.46944695195361e-18 	1.01809210258121 	0.0370252777111295 	3.44392227693271
2 	1.19902783015393 	4.44522890719057e-18 	1.01926546797191 	0.0351641279090576 	2.9825397369644
2 	1.25078095640108 	1.13841228110978e-17 	1.02034786139062 	0.0338396059990082 	2.55743420018924
2 	1.30442129471847 	1.73472347597681e-17 	1.02135986601768 	0.0330140025548195 	2.21023328752625
2 	1.36001728451516 	1.38777878078145e-17 	1.02235637514492 	0.0324410511645679 	1.94067528159721
2 	1.41763981454947 	1.04083408558608e-17 	1.02336375902943 	0.0319020096677417 	1.73345315327164
2 	1.47736230760124 	1.38777878078145e-17 	1.02440299162641 	0.0312362347734831 	1.57122537148499
2 	1.53926080777324 	1.30104260698261e-17 	1.02548454187816 	0.0303470807266048 	1.4389359760736
2 	1.60341407047001 	1.04083408558608e-17 	1.02661145838253 	0.0291891512781046 	1.32426835760403
2 	1.66893489902563 	7.80625564189563e-18 	1.02776793619315 	0.0277857706269595 	1.22218983402123
2 	1.70277529794134 	6.93889390390723e-18 	1.02836584706942 	0.0270097484204782 	1.17289593682013
2 	1.73884798288128 	6.93889390390723e-18 	1.02900014934355 	0.0261182382923392 	1.12591305019549
2 	1.81031024575141 	0 	1.03024974510792 	0.0243018634094418 	1.03756615270003
2 	1.88432958821742 	-6.93889390390723e-18 	1.03152341354274 	0.0223659964936389 	0.953629023245232
2 	1.9609947218388 	0 	1.03276472731046 	0.0204254444281552 	0.875806770251558
2 	2.02024009608345 	0 	1.03374930651543 	0.0189387342120571 	0.821114870356117
2 	2.06000503604194 	6.93889390390723e-18 	1.03438215200456 	0.0179477020544761 	0.787143482332777
2 	2.09836474743796 	1.38777878078145e-17 	1.03496516399612 	0.017061093934364 	0.758973333510715
2 	2.13536888877257 	6.93889390390723e-18 	1.03551381486535 	0.0162410653604932 	0.735025685467404
2 	2.17106536369585 	0 	1.03602715722494 	0.0154834468433042 	0.714961240367268
2 	2.20550038302044 	6.93889390390723e-18 	1.0365071988019 	0.014783673138956 	0.698467957912842
2 	2.23871852454378 	1.38777878078145e-17 	1.03695566557706 	0.0141371414683075 	0.685278196735151
2 	2.27076279075613 	6.93889390390723e-18 	1.03737418155712 	0.0135394258222523 	0.675173819254947
2 	2.30167466450941 	6.93889390390723e-18 	1.03776436898963 	0.0129863988108918 	0.667985549972159
2 	2.33149416271872 	6.93889390390723e-18 	1.03812782339856 	0.0124742928178462 	0.663590010839431
2 	2.36025988816627 	0 	1.03846609679134 	0.0119997219912211 	0.661906233441675
2 	2.38800907947441 	6.93889390390723e-18 	1.03878068938912 	0.0115596795412774 	0.662892470161605
2 	2.41477765931296 	1.38777878078145e-17 	1.03907304408384 	0.0111515200614479 	0.66654360505321
2 	2.44060028090272 	1.38777878078145e-17 	1.03934454295518 	0.0107729333671143 	0.672889213789641
2 	2.46551037287586 	1.38777878078145e-17 	1.03959650549261 	0.0104219141079262 	0.681992211821377
2 	2.48954018255081 	2.08166817117217e-17 	1.0398301879982 	0.0100967298300654 	0.693947986068339
2 	2.51272081767801 	2.08166817117217e-17 	1.04004678380929 	0.00979588904863452 	0.708883889259779
2 	2.53508228671038 	1.38777878078145e-17 	1.04024742403709 	0.00951811011360922 	0.726958969494697
2 	2.55665353765073 	1.38777878078145e-17 	1.04043317866663 	0.00926229113071019 	0.748363803918643
2 	2.57746249552636 	1.38777878078145e-17 	1.04060505786897 	0.00902748087411708 	0.773320303923217
2 	2.59753609853934 	2.08166817117217e-17 	1.04076401349059 	0.00881285046037634 	0.802081362618644
2 	2.6169003329393 	2.77555756156289e-17 	1.04091094065447 	0.00861766551657847 	0.83493022855895
2 	2.63558026666389 	2.77555756156289e-17 	1.04104667949798 	0.00844125865178707 	0.872179519313636
2 	2.65360008179049 	2.77555756156289e-17 	1.04117201701625 	0.00828300221545637 	0.914169842048325
2 	2.67098310584102 	3.46944695195361e-17 	1.0412876890553 	0.00814228158247695 	0.961268072978411
2 	2.68775184198056 	4.16333634234434e-17 	1.04139438242428 	0.00801846951859883 	1.01386546892636
2 	2.70392799814879 	4.16333634234434e-17 	1.04149273716428 	0.0079109025145357 	1.07237594354185
2 	2.71953251516198 	4.16333634234434e-17 	1.04158334892279 	0.00781886028316626 	1.13723503340526
2 	2.73458559382185 	3.46944695195361e-17 	1.04166677144953 	0.00774154982905987 	1.20890029258075
2 	2.74910672106653 	2.77555756156289e-17 	1.04174351913576 	0.00767809556108636 	1.28785406839483
2 	2.76311469519732 	2.77555756156289e-17 	1.04181406959001 	0.0076275367732546 	1.37460980127537
2 	2.776627650214 	2.08166817117217e-17 	1.04187886615431 	0.00758883344366454 	1.46972313372101
2 	2.78966307929018 	1.38777878078145e-17 	1.04193832034138 	0.00756088071135103 	1.57380919237063
2 	2.80223785741904 	1.38777878078145e-17 	1.04199281409838 	0.00754253165100307 	1.68756742470922
2 	2.81436826325886 	1.38777878078145e-17 	1.04204270188527 	0.00753262717579894 	1.81181535244276
2 	2.82607000020647 	1.38777878078145e-17 	1.04208831249179 	0.00753003118211386 	1.94753259664672
2 	2.83735821672613 	1.38777878078145e-17 	1.04212995060909 	0.00753366851607936 	2.09591660518753
2 	2.8482475259599 	1.38777878078145e-17 	1.0421678981051 	0.00754256306880008 	2.25845175473382
2 	2.85875202464506 	1.38777878078145e-17 	1.04220241506273 	0.00755587331033776 	2.43699399539089
2 	2.86888531136304 	1.38777878078145e-17 	1.0422337405493 	0.00757292281282157 	2.63387404358419
2 	2.87866050414343 	1.38777878078145e-17 	1.04226209322817 	0.00759322368892354 	2.85202339468062
2 	2.88809025744591 	1.04083408558608e-17 	1.04228767179961 	0.0076164912553843 	3.09512922178533
2 	2.89718677854204 	6.93889390390723e-18 	1.04231065542183 	0.00764264846879259 	3.36782668685716
2 	2.90596184331818 	1.04083408558608e-17 	1.04233120413891 	0.00767181863631187 	3.6759405381993
2 	2.91442681151997 	1.73472347597681e-17 	1.04234945948021 	0.00770430445078164 	4.02679249064953
2 	2.922592641458 	1.73472347597681e-17 	1.04236554528857 	0.00774055046547644 	4.42959748925885
2 	2.93046990419394 	1.73472347597681e-17 	1.04237956889806 	0.00778108470481933 	4.89598185372904
2 	2.93806879722526 	2.08166817117217e-17 	1.04239162324029 	0.00782643337566835 	5.44067197805745
2 	2.94539915768638 	2.08166817117217e-17 	1.04240179075529 	0.00787700114002049 	6.08242854166056
2 	2.95247047508334 	2.42861286636753e-17 	1.04241014267236 	0.00793290952291924 	6.84534771556008
2 	2.9592919035784 	2.42861286636753e-17 	1.0424167151371 	0.00799379057529426 	7.76073828643578
2 	2.96587227384055 	2.08166817117217e-17 	1.04242155638041 	0.00805849663377284 	8.8701032487371
2 	2.97222010447726 	1.73472347597681e-17 	1.04242516983955 	0.00812436086591922 	10.2309741426774
2 	2.97834361306218 	1.38777878078145e-17 	1.04242762091441 	0.00818538627484305 	11.9265603576751
2 	2.98425072677325 	1.38777878078145e-17 	1.04242845123604 	0.00823083394500043 	14.0691391991559
2 	2.98994909265477 	1.04083408558608e-17 	1.04242763076773 	0.00824117366255368 	16.8053480314047
2 	2.99544608751689 	3.46944695195361e-18 	1.04242531233488 	0.00818558660693943 	20.3471970362918
2 	3.00074882748522 	6.93889390390723e-18 	1.04242175579661 	0.00801712596309288 	25.0279984423904
2 	3.00586417721304 	1.04083408558608e-17 	1.04241732580242 	0.00766343869557294 	31.4170667405851
2 	3.01079875876789 	6.93889390390723e-18 	1.04241247073644 	0.00701101474320437 	40.5755958293508
2 	3.01555896020418 	1.04083408558608e-17 	1.0424077202059 	0.00588858955936943 	54.7409228243138
2 	3.02015094383281 	1.04083408558608e-17 	1.04240374621465 	0.00410681812722734 	79.9381976044321
2 	3.02458065419861 	1.04083408558608e-17 	1.04240107359866 	0.00181642223561762 	141.785477252343
2 	3.02885382577582 	2.08166817117217e-17 	1.04239945779426 	0.00036832653627635 	435.890057231684
2 	3.03297599039165 	2.60208521396521e-17 	1.04239844635612 	2.8523476525829e-05 	1716.7111774038
