/*--------------------------------*- C++ -*----------------------------------*\
  =========                 |
  \\      /  F ield         | OpenFOAM: The Open Source CFD Toolbox
   \\    /   O peration     | Website:  https://openfoam.org
    \\  /    A nd           | Version:  7
     \\/     M anipulation  |
\*---------------------------------------------------------------------------*/
FoamFile
{
    version     2.0;
    format      ascii;
    class       volSymmTensorField;
    location    "5000";
    object      bijDelta;
}
// * * * * * * * * * * * * * * * * * * * * * * * * * * * * * * * * * * * * * //

dimensions      [0 0 0 0 0 0 0];

internalField   nonuniform List<symmTensor> 
15600
(
(9.18071873355089e-05 -6.0164216135011e-07 -8.30876553437812e-25 -4.50319214505022e-05 -1.88916337771833e-23 -4.67612361111959e-05)
(0.000114963451052046 -4.41906736744574e-06 -8.71202860008747e-22 -5.64113754848027e-05 2.27363228462776e-23 -5.85345134569955e-05)
(7.12228203050286e-05 -1.18315141453286e-05 -4.71900840412579e-23 -3.43531250948458e-05 -1.23707443427431e-22 -3.68586365133591e-05)
(5.30880847646471e-06 -2.21402527616078e-06 1.27125337633869e-18 -2.30792191116889e-06 -3.02521200845017e-19 -2.99998647934342e-06)
(5.05439657443515e-06 -3.79508901343425e-06 -1.37416519527334e-18 -1.61299522443456e-06 6.39581913567923e-19 -3.44036913603838e-06)
(5.75588893924314e-06 -6.21871045204439e-06 4.82345626484208e-21 -9.49319676276189e-07 -2.76590884814369e-21 -4.80512758052455e-06)
(2.60676357047433e-06 -3.61851772455269e-06 2.28260192311745e-21 1.19914102776585e-08 -1.67893409239876e-21 -2.61796951135164e-06)
(1.600471707849e-06 -2.61532083744539e-06 3.29270519278205e-20 2.43486515989594e-07 -3.44325235143545e-21 -1.84340514698681e-06)
(1.13057111385142e-06 -2.06631115009649e-06 -1.85764041041856e-19 3.0878425166964e-07 1.75730777194655e-19 -1.43892364525546e-06)
(1.0546046796421e-06 -1.98380254702084e-06 -2.58937524922034e-19 3.24850988488127e-07 1.9527589769434e-19 -1.37904191418057e-06)
(1.06933859412325e-06 -1.96472088827322e-06 -3.6367745060322e-20 3.00497807755044e-07 4.22602473664854e-21 -1.36942553313148e-06)
(1.19987168150212e-06 -2.11898885290698e-06 -5.54195197526547e-25 2.83705883663804e-07 4.17232336053422e-25 -1.48313258089323e-06)
(1.38206058609592e-06 -2.36622510336449e-06 2.0691683697517e-22 2.80376542637063e-07 -1.15601930197064e-23 -1.66193849732065e-06)
(1.67399069009207e-06 -2.80359854597792e-06 9.04957365095489e-21 3.0099922286066e-07 -6.92321319139108e-21 -1.97439753445455e-06)
(2.15597258073715e-06 -3.55718933698575e-06 -7.88655824675127e-21 3.54767002221194e-07 5.96102011872985e-21 -2.50998651169771e-06)
(2.9231547337484e-06 -4.77242090452075e-06 4.14725499371606e-23 4.50394146956975e-07 -8.20776678713664e-24 -3.37253701841363e-06)
(4.03217877071426e-06 -6.47927376872139e-06 -2.91369202574155e-21 5.59510974530775e-07 1.47653002886958e-21 -4.59031251376776e-06)
(5.61381478006112e-06 -8.66110381968404e-06 -6.89632672585439e-21 5.65129689008568e-07 5.18817701635122e-21 -6.17709115639151e-06)
(7.86783637808181e-06 -1.13181904745728e-05 1.35474854315634e-20 3.10508499382029e-07 -7.92793289018491e-21 -8.17589186460317e-06)
(1.09347919748651e-05 -1.42281194172294e-05 1.23062216456407e-20 -4.25952849965889e-07 -9.90487774373277e-21 -1.0505687103566e-05)
(1.48707838872126e-05 -1.69443268267273e-05 1.24790477376279e-21 -1.89068479260231e-06 -7.69681910430176e-22 -1.29762058435321e-05)
(1.98714211854985e-05 -1.91418476424326e-05 8.76104567812219e-22 -4.3081724142014e-06 7.24278154356688e-22 -1.55585807302739e-05)
(2.60177573832325e-05 -2.05866752553127e-05 -2.80388314695842e-20 -7.70702723539606e-06 1.05285248753211e-20 -1.83052380272162e-05)
(3.28030829012886e-05 -2.06832860450152e-05 -3.06711916026276e-20 -1.18443141484387e-05 1.19945442066834e-20 -2.09524823794987e-05)
(3.95284419677376e-05 -1.89484760870601e-05 -1.43456247885332e-20 -1.62785717613271e-05 6.19495087712217e-21 -2.32428966400619e-05)
(4.55334254585686e-05 -1.53003231345774e-05 8.058286749138e-20 -2.04471610203063e-05 1.25075763732716e-19 -2.50787400638058e-05)
(5.01290371340599e-05 -9.76251235007797e-06 5.39230745272823e-19 -2.37477746440368e-05 8.04220150145921e-20 -2.63733496938353e-05)
(6.13853665575268e-05 -4.38930101797109e-06 7.69805514309635e-19 -2.98367024685792e-05 -2.01551554514915e-19 -3.15392013822623e-05)
(8.56094766980786e-05 -1.6778180006726e-06 2.43064663186807e-20 -4.19065961608793e-05 -1.89745625239045e-19 -4.36897722946866e-05)
(0.000106969206445689 -1.32430927300779e-06 -8.84937570157488e-29 -5.24355835217057e-05 6.57199375072133e-28 -5.45172661084689e-05)
(0.00011887931261952 -1.01748994607571e-06 -3.11432171819451e-20 -5.82797517080129e-05 2.32879654946476e-19 -6.05813846784807e-05)
(0.000125766330024347 -7.89133353053781e-07 1.41555405255368e-18 -6.16586923223463e-05 2.35533813745159e-19 -6.40884092563788e-05)
(0.000128516545851413 -6.18483524399833e-07 1.65761036632867e-18 -6.30081419602536e-05 -2.46788395281627e-19 -6.54887552997103e-05)
(0.000128244577411379 -4.6973542961852e-07 3.2564866023329e-20 -6.28751592877877e-05 -2.44184019590099e-19 -6.53498112195351e-05)
(0.000125515923421708 -3.42013997769103e-07 7.60505060563372e-23 -6.15374876730552e-05 -1.28043821480436e-25 -6.39592460558665e-05)
(0.000120883281164954 -2.29860283679726e-07 7.45816354186955e-23 -5.92661990097659e-05 -6.29689277277323e-26 -6.15986007268271e-05)
(0.000114761065313499 -1.32667745089724e-07 -7.23277934868923e-23 -5.62645224755096e-05 2.70657829462706e-24 -5.84789973842291e-05)
(0.000107520118040022 -4.89069276901765e-08 2.52061262000379e-20 -5.27143001881135e-05 -2.17639765649987e-19 -5.47893793942443e-05)
(9.94811563426531e-05 2.16079149770513e-08 -1.45671668845328e-18 -4.87728136209612e-05 -2.16520727443672e-19 -5.06931332607675e-05)
(9.09323304353545e-05 7.93049629173344e-08 -1.53350765287484e-18 -4.4581350918651e-05 1.96191477116586e-19 -4.63370770033512e-05)
(8.21263063639989e-05 1.24764875848852e-07 -2.11884121808501e-20 -4.02637993685217e-05 1.93998223231553e-19 -4.18499507546267e-05)
(7.32825608299695e-05 1.58785276071367e-07 1.68387500796618e-23 -3.59277698530863e-05 -4.40281932306548e-24 -3.73435867804294e-05)
(6.45872627632612e-05 1.82378324366331e-07 -4.37842693248379e-23 -3.16645405725764e-05 -1.25191997673486e-25 -3.29128473489959e-05)
(5.61943226305618e-05 1.96679311005689e-07 6.80782560354194e-23 -2.75495723030133e-05 2.66356407323295e-25 -2.86361586207916e-05)
(4.82270172063619e-05 2.02912494035954e-07 -1.33162449205165e-23 -2.36433053259838e-05 -1.94152642337029e-24 -2.45763382415417e-05)
(4.07801346475972e-05 2.02311931693847e-07 -1.32985430799507e-20 -1.99922116778634e-05 1.53657406676864e-19 -2.07816878398688e-05)
(3.39226908883288e-05 1.96085446296271e-07 9.79462909477973e-19 -1.66301271041874e-05 1.50242661116135e-19 -1.72873770523525e-05)
(2.77008405515572e-05 1.85368980126996e-07 9.39563822198645e-19 -1.35796785467933e-05 -1.19026926533451e-19 -1.41169265032628e-05)
(2.21409649762719e-05 1.71205555092339e-07 9.47714287951575e-21 -1.08537982679657e-05 -1.15525387806222e-19 -1.12837812353884e-05)
(1.72526962847182e-05 1.54526405997489e-07 -1.23508848709072e-23 -8.45720667177892e-06 -7.04353640708896e-25 -8.79285149367922e-06)
(1.30318277261405e-05 1.36145842805807e-07 1.83366550881862e-23 -6.38783925751312e-06 -3.39925155810031e-25 -6.6419956706464e-06)
(9.46298531912018e-06 1.16760334407706e-07 -5.58787198330035e-21 -4.6381565645447e-06 7.74656885606169e-20 -4.82338159538094e-06)
(6.52204991167384e-06 9.69529385545214e-08 4.19011058604164e-19 -3.19633169375115e-06 7.23975399071521e-20 -3.32472070196051e-06)
(4.17827353033925e-06 7.72021194168489e-08 3.47954481853919e-19 -2.04728795283168e-06 -4.44961483841819e-20 -2.13034640966789e-06)
(2.39611917663005e-06 5.78899982626515e-08 3.49274891973236e-21 -1.17360089686528e-06 -3.9628260503117e-20 -1.22215159761726e-06)
(1.13678777440971e-06 3.93220933580191e-08 1.29658617317947e-26 -5.56246531087429e-07 -8.2536621693253e-26 -5.80367115774794e-07)
(3.5951143122983e-07 2.17356466604443e-08 -1.45629427957052e-27 -1.75233763721008e-07 2.43583674868189e-26 -1.84222395263019e-07)
(2.25472683309097e-08 5.25055958348566e-09 -4.41128446014479e-26 -1.00985982647615e-08 -2.15722893643495e-26 -1.24449362118992e-08)
(8.40076301786641e-08 -1.00992573379257e-08 2.81096000132808e-25 -4.0306079925534e-08 -2.97827629362689e-26 -4.36884424096229e-08)
(5.02477429553655e-07 -2.42341538332239e-08 -9.84342958560779e-26 -2.4554807870915e-07 -3.8701395131959e-26 -2.5685228745193e-07)
(1.23746150462246e-06 -3.70312390904018e-08 -3.19319748734997e-25 -6.05970486216252e-07 7.87886636011769e-26 -6.31301608982574e-07)
(2.24974665346246e-06 -4.84450799662185e-08 1.70534910823371e-24 -1.10234839477877e-06 -9.93994699466961e-26 -1.14705410803621e-06)
(3.50159864785111e-06 -5.85041517162906e-08 5.92710242252409e-25 -1.71618049973382e-06 -8.73411532189095e-26 -1.78488262977653e-06)
(4.95690312024178e-06 -6.72279640884531e-08 -2.5814773583767e-24 -2.42975982518442e-06 1.27027774252092e-25 -2.52638530366712e-06)
(6.58121363239379e-06 -7.46508354043115e-08 -1.00160684156065e-26 -3.22619788178285e-06 -2.10350099038519e-25 -3.35400944714645e-06)
(8.34173382202832e-06 -8.08155617078028e-08 -4.86336604609759e-24 -4.08941517815406e-06 2.8358935145665e-25 -4.2510432033692e-06)
(1.02072586278606e-05 -8.57696806001205e-08 5.38768255970654e-24 -5.00411243943319e-06 2.16793656901526e-25 -5.20158555669726e-06)
(1.21480701302612e-05 -8.95623995652795e-08 -1.39517418346065e-26 -5.95571953936748e-06 -2.84902424323678e-25 -6.19049325718315e-06)
(1.4135806123129e-05 -9.22425631229607e-08 0 -6.93033104981956e-06 0 -7.2033138630295e-06)
(1.61432921065283e-05 -9.38557469888215e-08 0 -7.91462387789982e-06 0 -8.22620012178128e-06)
(1.81443655692276e-05 -9.44439666443224e-08 0 -8.8957710900848e-06 0 -9.24582045560379e-06)
(2.01136494561132e-05 -9.40414861320957e-08 8.37576980131883e-21 -9.86133087771416e-06 1.2261277587453e-19 -1.02492434978417e-05)
(2.20263551319853e-05 -9.26778653398915e-08 8.08730323119492e-19 -1.07991498918545e-05 2.52649557506863e-19 -1.12238377520564e-05)
(2.38579739568053e-05 -9.03686655294628e-08 1.6026363916183e-18 -1.16972121205347e-05 -6.837090710068e-21 -1.21571143372196e-05)
(2.55841003324688e-05 -8.71275725149968e-08 7.83668734711036e-19 -1.25435519611965e-05 -2.78766327549971e-19 -1.30366369890374e-05)
(2.71799562601003e-05 -8.29412320758097e-08 -1.13986090253598e-20 -1.33260213880978e-05 -1.41863547002391e-19 -1.38497795226108e-05)
(2.86203568699322e-05 -7.78082733546249e-08 3.62732035184641e-23 -1.40322725715573e-05 1.65903295755705e-24 -1.45837087481954e-05)
(2.98788199962197e-05 -7.16671672589943e-08 -1.03850939178503e-23 -1.46493220913691e-05 3.17256509136554e-26 -1.52249299690662e-05)
(3.09280824684879e-05 -6.45156015897088e-08 1.50598936416489e-20 -1.51638027676966e-05 1.542617287538e-19 -1.57595513625487e-05)
(3.17379914580661e-05 -5.62082707918402e-08 9.08772492350699e-19 -1.55609321441678e-05 1.53696875054837e-19 -1.61722071665336e-05)
(3.2278568503272e-05 -4.67807083720894e-08 8.15568732130972e-19 -1.58260105293304e-05 -1.58787696492728e-19 -1.64476231935055e-05)
(3.25116990069103e-05 -3.61217725510238e-08 -1.6457958016093e-20 -1.59403518209409e-05 -1.57153839972842e-19 -1.65663767758956e-05)
(3.24105357693854e-05 -2.45484211459336e-08 3.90773254477917e-23 -1.58907882615545e-05 -1.94666129712098e-24 -1.65147925745652e-05)
(3.19305429272049e-05 -1.09324369877881e-08 -1.94361566114515e-23 -1.56554884573153e-05 1.48969504858378e-26 -1.62701729298567e-05)
(3.10329588126953e-05 3.96709243973224e-09 -1.99835898644984e-23 -1.52154346961546e-05 -6.69236824246283e-26 -1.58127798081674e-05)
(2.96511686394131e-05 2.22607226321651e-08 -1.34208881038356e-22 -1.45379766222658e-05 5.43619920767675e-24 -1.51086589661523e-05)
(2.7752476098513e-05 4.10676846397219e-08 2.06375939054185e-22 -1.36070484260765e-05 4.35986213489726e-25 -1.41411848926907e-05)
(2.52407013042356e-05 6.5558875660665e-08 -7.28644595069504e-23 -1.23755116155862e-05 -1.0684489241932e-23 -1.28613309034999e-05)
(2.21302751199326e-05 8.72871251122438e-08 -6.65847908712832e-23 -1.08503473180876e-05 9.57784335545265e-24 -1.12765445001648e-05)
(1.82784740668442e-05 1.19235525448239e-07 1.75795639604881e-22 -8.96156815465582e-06 4.40573597768194e-24 -9.31411139931728e-06)
(1.39044091330738e-05 1.40081200307806e-07 -7.47549628168298e-25 -6.81627402079761e-06 -5.29835549727108e-24 -7.08600909694555e-06)
(8.72360400639577e-06 1.68050372827523e-07 3.84230461400072e-23 -4.27208570947014e-06 8.55602687329291e-25 -4.45018310847424e-06)
(3.88683279313007e-06 3.00107724624591e-07 6.63578897809284e-27 -1.89057033819551e-06 1.5094654455554e-24 -1.99566369594987e-06)
(2.92188250382144e-06 5.24770686912298e-07 9.13344550328838e-23 -1.39242815188012e-06 -3.24564590837672e-22 -1.52899560738465e-06)
(3.61676589954638e-06 1.21334487308837e-06 -7.49150800759204e-21 -1.62769488083576e-06 -1.59834980056766e-21 -1.9884744167254e-06)
(4.44389625079499e-06 2.12975701098868e-06 7.20135232586438e-21 -1.83335307877482e-06 1.80438201580428e-21 -2.60976016566983e-06)
(5.63113597300878e-06 3.56450135697392e-06 -3.09686271405559e-20 -2.0315814593207e-06 -1.27915228042763e-20 -3.59847486326406e-06)
(6.98345899448462e-06 5.52156519681097e-06 -1.95575557849711e-20 -2.0741657434169e-06 -7.20302615637994e-21 -4.9078207575911e-06)
(8.5297858412066e-06 8.15901248363813e-06 1.81652299122745e-20 -1.88198277498787e-06 9.8743473847709e-21 -6.64580912408729e-06)
(1.05601746250235e-05 1.18137649467896e-05 -1.86194362262864e-20 -1.46521377491527e-06 -1.13391596798907e-20 -9.09223290744172e-06)
(1.30256190084509e-05 1.64686697549206e-05 -1.71291725651803e-22 -7.85313256982234e-07 1.9250034127733e-21 -1.22366343940147e-05)
(1.58906597813721e-05 2.19656290724609e-05 2.10415530926622e-20 9.63413421100699e-08 1.35150790245124e-20 -1.59822059821734e-05)
(1.91573192569893e-05 2.81649914709288e-05 -1.61855526659539e-20 1.08831050397343e-06 -1.28594857406679e-20 -2.02395572865294e-05)
(2.29874755005403e-05 3.49927010659294e-05 1.30621043963753e-21 2.00654719051478e-06 -2.92629513463371e-23 -2.49865259835893e-05)
(2.67087394414218e-05 4.13599139749171e-05 -1.89911686146397e-20 2.74980847139178e-06 -1.5154742960056e-20 -2.94497121155991e-05)
(2.95107473317513e-05 4.6439747277213e-05 -1.85105140109977e-21 3.48723835419201e-06 -1.23778936059505e-21 -3.29880882697207e-05)
(3.1554323817341e-05 5.07916658600316e-05 -1.48247598549638e-21 4.41970613974399e-06 -9.73774184674382e-22 -3.5963239906108e-05)
(3.30716288071054e-05 5.4844517383077e-05 -1.09727744417254e-21 5.61724681243642e-06 -6.9314793500044e-22 -3.86772712777243e-05)
(3.44040901532464e-05 5.91249981417035e-05 -1.83608097226328e-20 7.1195031068256e-06 -1.3081864669757e-20 -4.15111386730114e-05)
(3.61750937092712e-05 6.46858183809721e-05 -1.41456544166572e-21 9.04261076644758e-06 6.98926092415544e-23 -4.52041418768958e-05)
(4.09982393404829e-05 7.49448001458228e-05 -1.18296497558726e-20 1.12401486557526e-05 -1.08853981783363e-20 -5.22227196135132e-05)
(5.19237747307814e-05 9.19873759974281e-05 -1.36967779599085e-20 1.23517451120208e-05 -1.11159428746163e-20 -6.42562410426094e-05)
(7.17274509368516e-05 0.000115943370256572 1.26252446669308e-20 1.01421045769121e-05 1.06654465997907e-20 -8.18449995583006e-05)
(0.000110533858250418 0.000152288707078777 2.56482181544264e-21 -1.01587840651893e-07 7.89007985761302e-22 -0.000110399147353255)
(0.000185732216799734 0.000201556583152691 -3.09247795428518e-20 -3.01767752235135e-05 -1.90479056008999e-20 -0.000155508784275208)
(0.000324424232991334 0.000244922051213139 1.57788803022145e-20 -0.000103455078394183 8.0351022046737e-21 -0.000220902877106271)
(0.000401272131084092 0.000176331426916335 1.54245818340022e-21 -0.000172529867257493 4.2048057801083e-22 -0.000228673654869243)
(0.000287742620486648 5.79256511802409e-05 1.02414440137164e-22 -0.000137794328350008 -2.24745347422326e-22 -0.000149903316644098)
(0.000136088129390942 6.85595051931006e-06 -8.26436523130761e-22 -6.67925908104829e-05 -3.23481409549342e-23 -6.92747540757855e-05)
(8.30903803855214e-05 -3.71246162036263e-07 -1.94889340710277e-25 -4.07565059985075e-05 1.56760001073663e-23 -4.23211767642224e-05)
(0.00174725086526288 -5.93469412685619e-06 7.47681832400555e-24 -0.000858014746051777 -1.483194878705e-25 -0.000888969401718842)
(0.00168370261277895 -5.19132654147794e-05 2.42138942850254e-20 -0.000829735518237047 -4.37689100567422e-22 -0.000853710955641319)
(0.00128196051656798 -0.000156923231675266 6.64231861796141e-19 -0.000626665870466019 2.16097144956866e-18 -0.000655098097017948)
(0.00047237686121731 -0.000127222971268398 -3.03107425968499e-17 -0.000220033173527987 5.63990594303688e-18 -0.00025226799972061)
(-1.21249994073363e-07 -1.02579098859059e-06 3.55435135574687e-19 3.10415897149321e-06 -4.31735859755737e-18 -2.98201428366538e-06)
(4.95122617239374e-05 -6.47037540921858e-05 9.03834908945034e-19 -2.38366459766619e-06 1.14493709400816e-19 -4.71144613742837e-05)
(3.1907940198442e-05 -4.93158745591351e-05 -4.19445602502347e-20 2.84122594789014e-06 3.08864297259144e-20 -3.47387434810213e-05)
(2.20555429582922e-05 -3.98985879432669e-05 -8.61583817753267e-19 5.61834869304533e-06 5.07277408840619e-20 -2.76655911439436e-05)
(1.73755678404005e-05 -3.48447728181763e-05 -1.18986390866691e-17 6.66044641949752e-06 9.41284563405409e-18 -2.40288048974925e-05)
(1.72576141424795e-05 -3.52413027080677e-05 -1.1158586441386e-17 7.09666441508652e-06 1.02758191619481e-17 -2.43469737349633e-05)
(1.89799652896468e-05 -3.70930753325157e-05 1.14066758404725e-18 6.77779543855902e-06 -1.38353214315994e-19 -2.57500349451439e-05)
(2.24481593867094e-05 -4.16772705736647e-05 6.12136106324251e-24 6.62618783727991e-06 -4.9836347091226e-24 -2.90656266639341e-05)
(2.72262665249224e-05 -4.84975319536122e-05 6.61960174250503e-21 6.73514448348766e-06 -4.23331283885611e-22 -3.39512246223848e-05)
(3.41736703625315e-05 -5.92265759368822e-05 -1.90831370594989e-19 7.41096514414863e-06 1.41502732714115e-19 -4.15721626106073e-05)
(4.4315300333063e-05 -7.56467718545124e-05 -1.1959390704632e-19 8.87525896749414e-06 8.82782806344492e-20 -5.31746053235624e-05)
(5.81466794448222e-05 -9.87159872790444e-05 1.12726843313036e-20 1.13101935952558e-05 -3.83926297572802e-22 -6.9436040144745e-05)
(7.60672048748977e-05 -0.000127593350872764 -1.41506716225898e-19 1.39249032421716e-05 1.23492834474038e-19 -8.9965115883081e-05)
(9.97036744631775e-05 -0.000160642191423386 3.86595481540163e-19 1.44141501542658e-05 -2.87245956607057e-19 -0.000114083596115758)
(0.000130526973945277 -0.000195645482739944 -2.38544967654791e-19 1.03592919195624e-05 1.62345063998057e-19 -0.000140844008436566)
(0.000169805877640982 -0.000228749746078517 -2.44592978031569e-19 -1.13440385200284e-06 1.89409105009265e-19 -0.000168620882465107)
(0.000219710469576595 -0.000256098906114342 3.11509854627614e-19 -2.30881139374424e-05 -2.1845469900856e-19 -0.000196563380727443)
(0.000281553976272904 -0.000273945139439588 -2.06720814088306e-19 -5.70769099804958e-05 6.78433086407992e-20 -0.000224409736638451)
(0.000352169518657123 -0.000278527448641857 2.72877416299486e-19 -0.000100864427872805 -1.05307649969061e-19 -0.000251229714332374)
(0.000427405739729014 -0.000266357460597763 5.38942990423906e-19 -0.000151064371349245 -1.964779051587e-19 -0.000276258482546422)
(0.00050252416499657 -0.000235335733613657 2.39786967881467e-22 -0.000203274649269345 1.39021307120836e-20 -0.000299159758823888)
(0.000575209285160555 -0.000187106799332429 -1.28478890207238e-18 -0.000253461122083606 -1.89696774803414e-18 -0.000321651657929055)
(0.000659096739825716 -0.000125021462493218 -5.32220223271245e-17 -0.000306181929607216 4.93133914068861e-18 -0.000352808956946089)
(0.000708984626837664 -5.99709092247722e-05 -5.22463590227781e-17 -0.00033952839419081 5.88024501254203e-18 -0.000369345417940002)
(0.000743535717066975 -2.5924259697923e-05 -1.75640297854228e-19 -0.000361800082653471 2.09107779016208e-18 -0.000381621136622738)
(0.000768301976966163 -1.30589589950716e-05 1.41415343120041e-27 -0.000375924901663508 -1.29866378414608e-26 -0.000392259385717981)
(0.000767686802599036 -4.10495728066006e-06 2.57158012890163e-19 -0.000375953972248472 -2.09212894977988e-18 -0.000391615334000729)
(0.00074682841641072 1.66615592601438e-06 -5.75365049855781e-17 -0.000365899738535681 -2.03046819223266e-18 -0.000380814422122826)
(0.000713297187661724 5.64341109907773e-06 -5.76989076605363e-17 -0.000349516918977869 1.70757758341762e-18 -0.000363671156425702)
(0.000670753332667908 8.4499323948446e-06 -2.81461975396709e-19 -0.000328670375947134 1.92897414710136e-18 -0.000341980352354631)
(0.000622290903940061 1.0385436727072e-05 1.07006264875812e-23 -0.000304903374918031 1.28470444431918e-22 -0.000317292331802768)
(0.000570481895222571 1.16690733402038e-05 4.0088824562926e-23 -0.000279486875797843 -7.95237622524409e-23 -0.00029090773837511)
(0.00051750875320084 1.24458306400977e-05 -2.08026609088668e-23 -0.000253496161447991 -3.95455037136203e-23 -0.000263933403812912)
(0.000464480543911578 1.2809022576273e-05 -2.27027102844998e-19 -0.000227478290456072 1.52996669758424e-18 -0.000236931166996761)
(0.000412311215398369 1.2830965697704e-05 4.30312631410078e-17 -0.000201883290010624 2.67048010428283e-18 -0.000210364809633279)
(0.000361755354672904 1.25719563212424e-05 4.15942790969073e-17 -0.000177082098025536 -2.87669319336212e-20 -0.000184617865748554)
(0.000313426255219706 1.20848742389094e-05 1.98157114827738e-19 -0.000153375885126753 -1.25749678829562e-18 -0.000160002364583028)
(0.000267816699731139 1.1416523882611e-05 -3.10042978679758e-22 -0.000131006428812253 -1.24570011313107e-23 -0.000136769236044585)
(0.000225313480373395 1.06089257078253e-05 3.90881216176105e-22 -0.000110163312641718 4.40097469469392e-23 -0.000115115629588986)
(0.000186210691839736 9.69927951484756e-06 -3.60023255164337e-22 -9.09905364668339e-05 -4.78642071755803e-24 -9.51915950383573e-05)
(0.000150721052911745 8.72035533417712e-06 2.47542535570289e-22 -7.35921041708152e-05 -2.06563926006497e-23 -7.7105814683119e-05)
(0.000118986070757622 7.70049164884482e-06 1.57408109834303e-19 -5.80370560569758e-05 -8.98172409411155e-19 -6.09307336524456e-05)
(9.10851697176221e-05 6.66386748073872e-06 -2.34352327164218e-17 -4.43639680273907e-05 -2.43461062892909e-18 -4.67071881324359e-05)
(6.70439145766417e-05 5.63070180937342e-06 -2.07940488004131e-17 -3.25850090013393e-05 -9.78861636372724e-19 -3.44485699707507e-05)
(4.68414884551826e-05 4.61758153284532e-06 -1.29092920177463e-19 -2.26896210002032e-05 5.70422728425236e-19 -2.41446233435652e-05)
(3.0417459037432e-05 3.63778557423758e-06 7.81871184677437e-23 -1.46478485781973e-05 1.74594092540393e-23 -1.57648805220844e-05)
(1.76779225106695e-05 2.70165848518065e-06 -6.01225480795866e-23 -8.41335655825864e-06 -1.11425490986109e-23 -9.26178713838799e-06)
(8.50105042886192e-06 1.81697571959128e-06 1.07120394010405e-19 -3.92615337968625e-06 -2.58689039649576e-19 -4.57352485449986e-06)
(2.74210412274094e-06 9.89305152019312e-07 -4.12101054542712e-18 -1.11505035108599e-06 -1.67021671034734e-18 -1.62656575312715e-06)
(2.3791924643227e-07 2.22352184793691e-07 -1.08674808484862e-18 1.00140523315175e-07 -1.47147604276597e-18 -3.37958372096051e-07)
(8.10911328452567e-07 -4.81721396694248e-07 -8.90936305335932e-20 -1.93355650010889e-07 -7.9443544740365e-20 -6.17370448784076e-07)
(4.27257560585886e-06 -1.12205359215787e-06 2.41404736355845e-25 -1.90299231393076e-06 5.85148436941731e-25 -2.36887255908709e-06)
(1.0426590256499e-05 -1.69854628357064e-06 2.39800080879106e-25 -4.93244240621335e-06 9.68697687941378e-25 -5.49249993551354e-06)
(1.90714786863931e-05 -2.20921478301553e-06 2.89973096827511e-23 -9.18305983731138e-06 -3.61814227079968e-24 -9.88545291661348e-06)
(3.00025764806613e-05 -2.65389365435333e-06 -3.41885235508857e-23 -1.4554387839594e-05 1.72609395780219e-24 -1.5443555111181e-05)
(4.30140890779245e-05 -3.03731447631643e-06 1.3897819252702e-23 -2.09451890411726e-05 -9.63240558163208e-25 -2.20622806906102e-05)
(5.79009094109573e-05 -3.36308839691839e-06 -3.92063063194798e-25 -2.82548225869261e-05 2.21942216537782e-26 -2.96371947763934e-05)
(7.44598693264248e-05 -3.63361272906985e-06 -3.49686857601737e-23 -3.63837404097801e-05 4.89810600750249e-24 -3.80647083620806e-05)
(9.24907140230087e-05 -3.85090834540258e-06 6.49546395389835e-23 -4.52337848712312e-05 -6.24962444153676e-24 -4.72427549078807e-05)
(0.000111796588188909 -4.01745605381132e-06 -2.37904186348449e-24 -5.47084299659456e-05 -3.04957664820522e-24 -5.70710352001007e-05)
(0.000132184475538432 -4.13561085131063e-06 -2.83042390109264e-23 -6.47130526039481e-05 4.28413146124935e-24 -6.74511855550792e-05)
(0.000153465408959335 -4.20753678095394e-06 1.01724484165717e-22 -7.51550159959721e-05 -2.78554976726348e-24 -7.82869045431583e-05)
(0.000175454404035437 -4.23516149817575e-06 -1.75235608272371e-22 -8.59436370812228e-05 4.2386764335252e-24 -8.94839190937e-05)
(0.00019797018821619 -4.22013387378377e-06 7.14071837923183e-23 -9.69900528092767e-05 -1.53081211597701e-24 -0.000100949847423888)
(0.000220834727123654 -4.1637913446027e-06 -7.61386469647096e-23 -0.00010820698639712 1.44937961803841e-24 -0.00011259395916063)
(0.000243872522657734 -4.06711312902227e-06 -1.64242020444359e-25 -0.000119508402473831 2.77754502553937e-27 -0.000124326818408202)
(0.000266909728088878 -3.93069734150026e-06 -8.35176967987347e-23 -0.000130809071109385 2.08473942589765e-23 -0.000136059834946806)
(0.000289772975131385 -3.75468788688046e-06 -1.47604356915985e-19 -0.000142023992553153 -1.69654989100476e-18 -0.000147704666746625)
(0.000312288042822624 -3.5387725261762e-06 -4.96472900926321e-17 -0.000153067740502365 -2.96619007986167e-18 -0.000159172545780871)
(0.000334278067467097 -3.28203342086746e-06 -1.01794815734535e-16 -0.000163853585901779 1.01862691862731e-18 -0.000170373364444273)
(0.000355561693256811 -2.98302007633141e-06 -5.19898924524007e-17 -0.000174292580636726 4.2458916934428e-18 -0.000181214742760271)
(0.000375950313101647 -2.63939142553772e-06 1.80480319740188e-19 -0.000184292211482446 1.95880235025034e-18 -0.000191600615685902)
(0.000395245642707695 -2.24824770156282e-06 -8.59590331394164e-22 -0.000193755186559291 7.81319944127546e-23 -0.00020143002109857)
(0.000413235175508199 -1.80519960883468e-06 4.58558139630303e-22 -0.000202577229224056 2.29421709971203e-23 -0.000210594761537207)
(0.000429689321637311 -1.30552065131748e-06 -2.24925897032825e-19 -0.000210645622650172 -2.14867029933364e-18 -0.000218977999017436)
(0.000444353552189702 -7.41796670054073e-07 -5.96395814255797e-17 -0.000217835393723155 -2.08618489192603e-18 -0.000226450216607379)
(0.000456946232687453 -1.07075882795508e-07 -5.96167235795902e-17 -0.000224008298763963 2.27360029989429e-18 -0.000232868066516794)
(0.000466962234727234 6.08187264727281e-07 2.44814092354692e-19 -0.000228916457963179 2.28175717376115e-18 -0.000237974377310916)
(0.000473831752415143 1.40824088924335e-06 -1.98093826682856e-22 -0.000232279380399197 2.8692570433262e-23 -0.000241479920794586)
(0.000477286481763405 2.3198938461201e-06 1.48447364366742e-21 -0.000233964767119922 -5.19257734943617e-23 -0.000243248732725474)
(0.000476909902404567 3.35336921572204e-06 -1.31671273587381e-21 -0.000233766851606298 -1.23265875137028e-22 -0.000243070122468696)
(0.000471989679412211 4.5575773455085e-06 1.42921047245011e-21 -0.000231335215587271 1.28886906525016e-22 -0.000240582281922173)
(0.000461833100663772 5.92267733310672e-06 -3.39708269898502e-21 -0.000226325963654939 1.7453203535642e-23 -0.000235436498995332)
(0.00044526221391317 7.54882837040081e-06 1.97360191445886e-21 -0.000218158261118328 -2.629881309224e-23 -0.000227035835232516)
(0.000421350464674318 9.36808297942653e-06 1.9630078213527e-21 -0.000206366186814329 1.01360147534973e-22 -0.000214919795473108)
(0.000388036401159348 1.15977435085705e-05 -3.22266848579602e-21 -0.000189924263770183 -9.13111675947707e-23 -0.0001980527156323)
(0.000343854456855567 1.40353441621667e-05 6.56915700257042e-25 -0.000168077303542128 5.31398821777666e-24 -0.000175724430711965)
(0.000285086151864083 1.68179932332646e-05 3.77312772194191e-23 -0.00013876504458607 2.20710512757639e-24 -0.000146277219723341)
(0.000225437274246873 2.40470146020164e-05 1.57806595473907e-20 -0.000108560605381995 1.30872686852167e-21 -0.000116841612875417)
(0.000195911389425248 3.60421027151657e-05 1.22123118361856e-19 -9.24126217727549e-05 1.51753191537565e-20 -0.000103467724230882)
(0.00018178052686168 5.40604616127229e-05 2.54743319565599e-19 -8.21971624665431e-05 6.02413605320159e-20 -9.95534953596252e-05)
(0.000180080886716449 7.47658348218793e-05 -8.45664217207462e-20 -7.63840494505546e-05 -4.50785436931081e-20 -0.000103665734435281)
(0.000180695598063942 9.89540169735405e-05 4.59423035499824e-19 -6.93214924458478e-05 1.42796679791107e-19 -0.000111340700067518)
(0.000183390120314313 0.000126474025532944 4.21623217224084e-19 -6.07189613492248e-05 1.95123207667399e-19 -0.000122634364976196)
(0.000186884703539025 0.000157930953363372 -4.14999666422405e-19 -4.94651738882727e-05 -2.00599181573386e-19 -0.00013737831203538)
(0.000192941843581323 0.000194915674108829 4.12140958621894e-19 -3.59620662500214e-05 2.09653630557368e-19 -0.000156932692815005)
(0.000202853588896864 0.000238407343807939 -3.83740068153041e-19 -2.06692202874177e-05 -2.36038536908191e-19 -0.000182129724227739)
(0.000217613906344411 0.000288248313243102 -3.5790135892337e-19 -4.60277195959801e-06 -2.3727874698164e-19 -0.000212947243822611)
(0.000236968239210953 0.000343795757117695 1.46924164998251e-19 1.17437251977396e-05 1.04760976177838e-19 -0.000248637365739104)
(0.000262219112280738 0.000404858247240056 -1.80192615964972e-19 2.69432503367699e-05 -1.15353151348992e-19 -0.000289075631254995)