/*--------------------------------*- C++ -*----------------------------------*\
  =========                 |
  \\      /  F ield         | OpenFOAM: The Open Source CFD Toolbox
   \\    /   O peration     | Website:  https://openfoam.org
    \\  /    A nd           | Version:  7
     \\/     M anipulation  |
\*---------------------------------------------------------------------------*/
FoamFile
{
    version     2.0;
    format      ascii;
    class       volScalarField;
    location    "5000";
    object      epsilon;
}
// * * * * * * * * * * * * * * * * * * * * * * * * * * * * * * * * * * * * * //

dimensions      [0 2 -3 0 0 0 0];

internalField   nonuniform List<scalar> 
15600
(
0.637660449603245
0.582348330143711
0.346525107141577
0.146937135060207
0.0416787200626316
0.0286208686788883
0.0304270477113098
0.0228148188991464
0.0171334392658764
0.0139332590500182
0.0117594345348864
0.0105036245837877
0.010053908544074
0.0103019828575446
0.011283148404657
0.0130039045789667
0.0154478403672566
0.0184171626991938
0.0218821926772078
0.025773883171993
0.029909950532486
0.0340745968216114
0.0385385667558375
0.0434871365808881
0.048728015414206
0.0542520056463459
0.0600773912321582
0.0663822259291756
0.0832270878599691
0.106007197819999
0.125420421652954
0.142368233059524
0.157839498863182
0.172000579047343
0.184681585570163
0.195912685861131
0.205846345370955
0.214502239280918
0.221916515966824
0.228132102654145
0.233203117748719
0.237193189968727
0.240174614960168
0.24222530153026
0.243426762459353
0.243861450804118
0.243610944234837
0.242754152145563
0.241366126406252
0.239517085348029
0.237271878188941
0.234689656274494
0.231823772436546
0.22872187900785
0.225426084602584
0.221973319621851
0.218395781060363
0.214720396927637
0.210970891531094
0.207167523023912
0.203326529042715
0.199461884646556
0.195584761322
0.191703537534008
0.187824611376076
0.183952500582752
0.180090008304297
0.176238368941147
0.172397379256846
0.16856547009583
0.164739792887939
0.16091619938938
0.157089305369474
0.153252327754043
0.149397185457307
0.145514059023215
0.141591694007601
0.137616350697343
0.133572724006165
0.129441603646382
0.125204849741645
0.120802047772935
0.116292709878449
0.111656394018514
0.106834351584758
0.101733804310517
0.0962973933644594
0.0903908027006322
0.0839471217987368
0.0767655686451992
0.0685766696884251
0.0582065945335553
0.0519805928932596
0.056999054013547
0.0639481200881949
0.0735449408799569
0.0845189466936435
0.0974223429800571
0.113094371104267
0.132365873309017
0.153212201680661
0.175644196046699
0.199101231491656
0.222892070477721
0.242801049659213
0.26190234200985
0.282571097834366
0.306091205901925
0.335243912449845
0.376732042563558
0.441962536955606
0.523151156047098
0.625497561672013
0.766315918943616
0.940167108130797
1.0632345771904
0.889387680985724
0.692728625731682
0.561824687109916
0.60458571935723
2.30977228974432
2.12092007140148
1.43972627591573
0.62356649957737
0.165568486095205
0.104743217537348
0.110847836157925
0.0838603181461004
0.0629728728627658
0.0511060122712066
0.0430722480997512
0.0384234135017244
0.0367155883032722
0.0375926312340454
0.0411920753584199
0.0475379548830853
0.0565129800391202
0.067413768376224
0.0800411381427012
0.0939688384339856
0.108397206717925
0.12272513466698
0.137717126389546
0.153635740451623
0.170059953218297
0.18742240780049
0.207742417759428
0.239890531134386
0.296913751758676
0.357064670867753
0.405241679168136
0.446399102205323
0.483096728679447
0.516314039420011
0.545797554956483
0.571584425370041
0.59394426358788
0.613085425155041
0.629220800310809
0.642550043292932
0.653273165802489
0.66158985747343
0.667700396689439
0.671802624250024
0.674090309138334
0.674750391605553
0.673961297480288
0.671891171369039
0.66869684449673
0.664523019095822
0.659502002375293
0.653753659524427
0.64738564044088
0.640493835585786
0.633162910201318
0.625467040798202
0.617470999504447
0.609228864716403
0.600788283633772
0.592190250074238
0.583467517207055
0.574647659533827
0.565752676032056
0.556799001630589
0.547798648196909
0.538759526684155
0.529685729467292
0.520577767809885
0.511432767459541
0.502244550574185
0.493003711673906
0.483697500570473
0.474309794518749
0.464820679584562
0.455206382017354
0.445438292386447
0.435483063818901
0.425300476408131
0.414844242568548
0.404057480452973
0.392880618454613
0.381216672353687
0.369300885286653
0.356982338772965
0.344036971524123
0.330221036926033
0.315309465176186
0.298961565709369
0.280824225986488
0.260401711267679
0.236655105617977
0.206131312724265
0.183634726398117
0.192155851961395
0.213468006787419
0.243553231618442
0.279005919560594
0.321306991336689
0.373084047708892
0.436661310321178
0.506840203130287
0.583128455332743
0.664029816053743
0.747308138748327
0.821491789764391
0.894118879938573
0.972697487964082
1.06202757498077
1.1713307056133
1.32253994975886
1.55176357855008
1.83798274573744
2.19381603830983
2.66013036465405
3.2109730688155
3.64000271463331
3.44654890473397
2.94639663468889
2.40175300119524
2.30291849847232
3.21332862796677
2.86893651668791
2.26336093160093
1.27735303817997
0.349386589608097
0.190246623610627
0.194672534624395
0.151236164052956
0.115213360354724
0.093697125930973
0.0789799043881768
0.0702127888128844
0.0667308541309588
0.0678432402010577
0.0736240520908615
0.0837788698567324
0.0975661149893511
0.113233187758533
0.129765476222442
0.145970872609635
0.160658972173217
0.17344790844532
0.18576142976422
0.198662926562218
0.212728879421003
0.229588019966337
0.25202936723659
0.282329295515869
0.327230159872268
0.373647082797549
0.412034575640659
0.445527212136482
0.475219767569751
0.5007775898422
0.522993982389612
0.542744062041888
0.560084836197137
0.575158060089528
0.588093467351471
0.599014374230329
0.608045081425312
0.615311070557438
0.620939437968229
0.62505751147276
0.627791651914971
0.629265665597794
0.629599514708867
0.628908102171731
0.627300355714977
0.624878509358592
0.621737665925205
0.617965537356767
0.613642368166502
0.608841005828503
0.603627102025243
0.598059347453793
0.592190022221701
0.586064827069849
0.579724032917426
0.573203061650358
0.566532036735626
0.55973658745531
0.552838199212697
0.545854380789262
0.538799043743882
0.531682803160913
0.524513184863392
0.517294793845551
0.510029442825857
0.502716228260178
0.495351561721142
0.487929131729031
0.480439818167966
0.472871502716473
0.465208833076938
0.457432806847055
0.449520326213856
0.441443417912661
0.433168422684008
0.424654701289528
0.415853375747444
0.406726679937736
0.396932075777951
0.38664725622735
0.375808895258825
0.364234017588815
0.351718429436497
0.337963356571999
0.322619694578877
0.30509439540952
0.284772104496776
0.258306955602632
0.237793800572172
0.242576706635099
0.25956562749894
0.287494678067094
0.323933710163463
0.369241058702168
0.425471551351117
0.494165815447191
0.572668237909423
0.659509428664464
0.75355136039327
0.85289578222208
0.951877247522989
1.05433865805509
1.16707848128766
1.2963671427793
1.45077576140931
1.64733016753046
1.90828608473755
2.21705556853634
2.56183907659454
2.92832290140167
3.27283960944622
3.51615552114188
3.52058174193825
3.49679340438329
3.46634544314063
3.44730573326861
2.76317759328394
2.47304696599569
2.16216841835257
1.67221929841206
0.646390458123689
0.26822188059787
0.238119670977629
0.192358009699696
0.151460886279651
0.124215906676325
0.104823416861122
0.0926886626102956
0.087120648585565
0.0871152237458348
0.0922087330310257
0.101261944242933
0.112632737514891
0.124257063357847
0.135246527380195
0.145031958969337
0.153437621080233
0.160986173168552
0.169062269422641
0.178623238116384
0.19045042477403
0.206009159080123
0.227029590105202
0.254168796259349
0.28884827521294
0.323172022391077
0.352195290698862
0.377750716556181
0.400236826575352
0.419617548793386
0.43682135391114
0.452211176535314
0.465814574774989
0.477722675896265
0.488017921185563
0.49678268029959
0.504101957512135
0.51006343906043
0.5147571629989
0.518274491433722
0.520706981668396
0.522145192494226
0.522677599589301
0.522389643507274
0.521362953558121
0.519674747094841
0.517397413454626
0.51459824667209
0.511339315448193
0.507677442000226
0.503664299834442
0.499346537678182
0.494766165054657
0.489960425931404
0.484962415292209
0.479801422578871
0.474502996501471
0.469089170491907
0.46357883365139
0.457987921401159
0.452329608040895
0.446614539834328
0.440851005841166
0.435045078893937
0.429200725803972
0.423319890061742
0.417402535013053
0.411446659936318
0.405448258604158
0.399401257881495
0.393297355772929
0.387125868464711
0.380873366943011
0.374523430165273
0.368055865577801
0.361446501525252
0.354664440348675
0.347692975948678
0.340333121033355
0.332519220317162
0.324317168734783
0.315644835312239
0.306371034250472
0.296314120948432
0.285237075595371
0.27276204531201
0.258502564241278
0.240443771758866
0.225220863752413
0.224709799684529
0.234031879267352
0.252923889002226
0.279964300975708
0.31472834556759
0.358123166177218
0.410803646984698
0.471683040808498
0.539508921934163
0.613427140656734
0.692185031817405
0.773828520612476
0.859838878989894
0.954171288345539
1.06145451425703
1.18725750641251
1.34015405351861
1.5274335623456
1.73972260544409
1.96244016795332
2.17405370143187
2.35343825357998
2.49900474687004
2.5888213178302
2.65854371297648
2.8186684950107
2.91628423595087
2.22537177251668
2.03129519726968
1.86684656501936
1.76263150695038
0.986592239037413
0.361677158465527
0.243027675542377
0.196617037366454
0.159607675319824
0.132177768833718
0.111728951977465
0.0984298986449895
0.0916431393944168
0.0903398580142117
0.0936735243236551
0.100177962017846
0.10816062031004
0.116101414128909
0.1234912935629
0.130137096195891
0.13620748537678
0.142317834113595
0.149437886026623
0.158299633131541
0.169704652011031
0.18487712650504
0.204969764123656
0.230055759360054
0.258536763286563
0.285191241246994
0.308231481997447
0.328726453913805
0.346801655312869
0.362672080744212
0.376897938196342
0.38965285847546
0.400963361667192
0.410895693053434
0.419510504299937
0.426870529252187
0.433041390691835
0.438091676140236
0.442092356576751
0.445115957801691
0.447235547334249
0.448523760530265
0.449051875065638
0.448889020604287
0.448101515965024
0.446752356624155
0.444900843057372
0.442602335608719
0.439908120470212
0.436865364491403
0.433517172151217
0.429902737843038
0.426057427350808
0.422012927255531
0.417797503577792
0.41343629304437
0.40895147358597
0.404362353761836
0.399685680681356
0.394935818911082
0.390124889050301
0.385262952744527
0.380358158927948
0.37541686716877
0.370443746959744
0.365441859094922
0.360412706153188
0.35535626894421
0.350270995772916
0.345153791227227
0.339999917427247
0.334802936702751
0.329554461522515
0.324244074852742
0.31885875995375
0.313382963457935
0.307796187061182
0.302088026986555
0.296152418959721
0.289898225144185
0.283357948882418
0.276504023210119
0.26925849293137
0.261512984381564
0.253113452005456
0.243839041120597
0.233426090572947
0.220748239141023
0.208996175969476
0.205604883078053
0.21035211489456
0.223213867904282
0.243299316562704
0.269983392608968
0.30353931743134
0.344150790540269
0.391250145947783
0.443910477019179
0.501440056597364
0.562946135961688
0.627724461998322
0.696455588931277
0.771355307055806
0.855452328597144
0.95232070739821
1.06645061620273
1.19983282337812
1.34721516748873
1.49858179055905
1.63841159742787
1.75631358919709
1.86421774147467
1.97737922098971
2.06554716748983
2.20197249991861
2.29420075119598
1.82850496323704
1.70172040560418
1.59957229940746
1.68345190979172
1.23860053627326
0.491135240470916
0.24496237062511
0.186053475644003
0.152672603861211
0.127245422107797
0.10795166358559
0.0952421639266069
0.0885103673485128
0.0868311825533376
0.0892268086750101
0.0942258541629025
0.100320670168795
0.106409869018611
0.112166628406589
0.117542511554076
0.122807654792864
0.128529771739879
0.13542942244241
0.144125473878212
0.155382423806623
0.170199114436341
0.189325692928484
0.212318687187605
0.236442911200307
0.258271164484687
0.277508539996894
0.294759911597921
0.310065078911498
0.323688163640286
0.335955748294149
0.346965909894056
0.356745269312085
0.365345852786815
0.372816278021952
0.379208033698439
0.384575460472459
0.388975854522982
0.392468801573607
0.395115466673166
0.396977677676792
0.398117084565172
0.398594344994544
0.398468437141305
0.397796077169892
0.39663126796296
0.395024965436613
0.393024855985614
0.390675229111722
0.388016927021
0.385087410592365
0.381920843507735
0.378548107311858
0.374997044764871
0.371292557160556
0.367456859445842
0.363509672640672
0.35946828031573
0.355347780567834
0.351161249252838
0.346919858291681
0.34263302985879
0.338308565613581
0.333952758104586
0.329570482854486
0.325165277122663
0.32073939465211
0.316293851396684
0.311828434767199
0.307341716807331
0.302830999467585
0.298292301397231
0.293720194237771
0.28910779009603
0.284446347465918
0.27972540510516
0.274930949635596
0.270055632791948
0.265039300906564
0.259810521140892
0.254372611394564
0.248718327156159
0.242803268289553
0.236563488861369
0.229901059397034
0.222688671657214
0.214749020154796
0.205487584365702
0.196307437067347
0.191873971802367
0.193953874120157
0.20295632624525
0.218348610760402
0.239521311383997
0.266430807403323
0.299005118359017
0.336853708011618
0.379278040027291
0.425699167078889
0.475433769284781
0.528252677798861
0.584583360117308
0.645755624292738
0.713791803891031
0.791122203800651
0.880319358480104
0.981446241794529
1.09117560044217
1.20296041853374
1.30617632164797
1.39491074743606
1.48119566988394
1.59003698161646
1.68662243432982
1.79662989266376
1.86294082091916
1.54927716279331
1.46232973481921
1.39028573541427
1.54303749924125
1.36174185902412
0.644318901057116
0.261750241310701
0.176992731092826
0.143807695492024
0.120179481635716
0.102359878495107
0.0906364007160279
0.0843632858150066
0.0826830860258878
0.0845874284283971
0.0886900087940936
0.0936759594188421
0.0987117265191679
0.103577193442659
0.108302903559795
0.113194628852276
0.118761849824685
0.125581225412097
0.134199335464124
0.145308081696432
0.159698047443519
0.177799848306185
0.198803273525232
0.219741373098624
0.238381150251228
0.255061458711657
0.27010851501591
0.283549489614744
0.295613928941339
0.306502814166938
0.316280031951748
0.324971395886049
0.332619845502272
0.339266443366455
0.344955442025506
0.349733882855536
0.353651702450516
0.356761038539918
0.35911558898611
0.360769765695507
0.361777936943996
0.362193688771898
0.362069205233643
0.361454741694905
0.360398215895473
0.358944903343397
0.35713723336934
0.355014670270994
0.352613668560605
0.349967757940398
0.347107506650044
0.34406063705689
0.340852209745931
0.337504681212849
0.334038128393928
0.330470437334483
0.326817357314007
0.323092711517587
0.319308546501031
0.315475241660564
0.311601643592849
0.307695183485849
0.30376198032467
0.299806928213191
0.295833772966372
0.291845169785313
0.28784273425132
0.283827065414191
0.279797773316734
0.275753455480719
0.271691708749908
0.267609028664339
0.263500831289332
0.259361191322569
0.255182993149392
0.250956611871325
0.246676816575492
0.242307968804152
0.237799357865389
0.233141582801594
0.228334419512819
0.223354316333271
0.218165823631187
0.212709802061567
0.206917331524109
0.200672675562974
0.193705483524664
0.186512009887116
0.181955096611816
0.182482673967012
0.188917087189889
0.20102532848682
0.218293973039694
0.240527890555665
0.267512841311218
0.298920853744715
0.334201745008672
0.372860049181125
0.414348634730465
0.458643798178712
0.506093393548413
0.557566609382838
0.614474012997539
0.678561263156679
0.751406125211998
0.83230534520568
0.918891422301012
1.0067686408043
1.08847471640751
1.16019000014864
1.23188713783821
1.3285337354484
1.42456650814855
1.52145066083557
1.5714560508396
1.34672855628044
1.28358487431549
1.22954991791191
1.3922776107787
1.40968146014899
0.798467603471372
0.29796969461855
0.174072128907047
0.137216672160885
0.114504119231919
0.0978092612254226
0.0868983859053636
0.081035064564205
0.0793779004020233
0.080918932345313
0.0843735458865442
0.0885900165264956
0.0929118110873602
0.0971911084821837
0.101506875822786
0.106172758097572
0.111645454576489
0.118409562426016
0.126951718413377
0.137875992169835
0.151787867094563
0.168868767396188
0.188099842146547
0.206655691504442
0.223081876502564
0.237954529254655
0.251434523386411
0.263546155118303
0.274474912299247
0.284350185790539
0.293218514085232
0.301104349940403
0.308044396683602
0.31407458090951
0.319234167271833
0.323565175753658
0.327112470708359
0.329923058349265
0.332045483719669
0.333529033145574
0.33442302825242
0.334776138611384
0.334635806430498
0.334047758594211
0.333055627154776
0.331700666475291
0.330021564006633
0.328054329543642
0.325832274461858
0.323386054314743
0.320743617590095
0.317930367095178
0.314969291084951
0.311881017124105
0.30868401214697
0.305394760524275
0.302027825427245
0.298596030329675
0.295110597585282
0.291581253818464
0.288016351427625
0.284422977760026
0.280807052698106
0.277173412910191
0.273525887013476
0.26986735558323
0.266199805768444
0.262524364559842
0.258841336042111
0.255150200807337
0.251449644384051
0.247737503283558
0.244010808389932
0.240265621434622
0.236497189449033
0.232699032183829
0.228867639065876
0.224981513272121
0.221006116964601
0.216928381210445
0.212750997323822
0.208463654677566
0.204050099476818
0.199478822278705
0.19471944576982
0.189701625574356
0.184354978356658
0.178718609984709
0.174463522439926
0.174116918285686
0.178793234787328
0.188515062773073
0.202894576889968
0.221675588492085
0.244567330199182
0.271263924334963
0.30131215071451
0.334279776514995
0.369715525141324
0.40769117451255
0.448530134218048
0.492850330928222
0.541680968715443
0.596332273599305
0.657815119997655
0.725118875979068
0.796412291705506
0.868631361398519
0.936334801704612
0.9967649548047
1.05780147178206
1.14150556682147
1.23154783760652
1.32046233208122
1.36295596689948
1.19298787418178
1.14513352084106
1.10417665491772
1.25061689731013
1.40557432620412
0.939669610505184
0.356395443761147
0.178439102876281
0.133606895300024
0.110735176689052
0.0946992344130898
0.0843176677295555
0.0787089636262756
0.0770075585263559
0.0782110271723361
0.0811309948699465
0.0847482645592103
0.0885281532108325
0.092373864251961
0.0963937676102506
0.100895677503141
0.106290666594918
0.112997842040219
0.121448205889467
0.132155131894979
0.145565472249317
0.161674796681882
0.179375876154172
0.196118519505516
0.210948775810719
0.224496946029071
0.236824896583053
0.247953153653997
0.258028638088025
0.267137855537208
0.27531755894088
0.282590640949767
0.288989316720367
0.29454584563841
0.299295916338225
0.303277977237878
0.306533294358186
0.309105245566758
0.311038734604585
0.31237942488359
0.313173064380427
0.313464832041613
0.313298791411636
0.312717429348216
0.311761296937558
0.310468742814283
0.308875735544772
0.307015763210144
0.304919839787967
0.302616463322946
0.300131648110696
0.297489052156997
0.294710091705307
0.291813999741819
0.28881800718063
0.28573750992076
0.282586139951303
0.279375926672303
0.276117427345231
0.272819830738228
0.269491070349093
0.266137927990232
0.262766127616146
0.259380417729086
0.2559846458178
0.252581820441157
0.249174168736059
0.245763177553104
0.242349638016544
0.238933662344432
0.235514724521392
0.23209164160572
0.22866263288134
0.225225230331132
0.221776434610922
0.218312111738861
0.214830228891727
0.211317999811385
0.207752645572067
0.204122180127714
0.200430689979289
0.196676721522941
0.192857439458745
0.188961468230683
0.184984919903021
0.180891943911937
0.176734951092217
0.172330186034694
0.16855889073759
0.16776357301361
0.171221351195446
0.179162517363448
0.191330903947847
0.207461131893471
0.227227009840704
0.250331427628832
0.2763862899311
0.305008146875403
0.335816902234277
0.368929506116112
0.404661397875312
0.443487017431145
0.486190395357756
0.53379053737291
0.586951543515255
0.644560014235726
0.705122931929379
0.766424081709805
0.824335687589987
0.876648054574219
0.92947228366617
1.00144780308397
1.08323347375645
1.16534724324393
1.20469409719615
1.07133700942792
1.03413554860418
1.00377999089693
1.12466233067226
1.36649946611254
1.05466251159107
0.437681796725084
0.191050772364579
0.133034768005473
0.108738527788365
0.0928891487381239
0.0827601326514147
0.0772442733373419
0.0754189352778775
0.0762815047964917
0.0787270654556303
0.0818429917228403
0.0851809566384775
0.088680289756725
0.0924660253645429
0.0968331676854789
0.10215336461546
0.108794837495642
0.117135546477805
0.127602036663827
0.140509258456367
0.155720673299375
0.172120713158829
0.187463897675109
0.201112660776483
0.213667148036096
0.225129213989027
0.235513717924432
0.244936431233074
0.253457041372492
0.261106179613328
0.267905172284991
0.273882896437631
0.279068916452883
0.283496308591984
0.287200949115685
0.29022153124197
0.292598854875953
0.294375242824187
0.295593792311256
0.29629771609755
0.296529709778995
0.29633142338403
0.29574301802441
0.294802820761463
0.293547069927873
0.292009746694075
0.290222496029766
0.288214616298668
0.286012994523518
0.283642194368922
0.281124549032529
0.278480271027414
0.275727518580042
0.272882562860982
0.269959945724838
0.266972560631519
0.263931800318984
0.260847681533477
0.25772894827181
0.254583179850103
0.25141689086499
0.248235622664133
0.24504402483401
0.241845929522189
0.238644415500329
0.23544186823203
0.232240027349021
0.229040037117987
0.225842476861114
0.222647411366254
0.219454399387742
0.216262565530361
0.213070567193173
0.209876753549013
0.206678793909046
0.203475945902253
0.200261093394419
0.19701992865128
0.193743568849683
0.190437159885374
0.187105435734864
0.183755190733795
0.180389941216327
0.177024470293465
0.173649659026795
0.170391487020089
0.166967798941265
0.163740845134513
0.162767812617486
0.165382536667925
0.171973149055051
0.18240840501379
0.196443753132418
0.213744495994028
0.234019666847065
0.256926623636932
0.282120323646045
0.309275586346482
0.338529754738857
0.37019385522572
0.404657040933985
0.442541418796964
0.484663488549482
0.531464587878629
0.581828502623771
0.634501042398421
0.687819739957645
0.738520465986199
0.784654986331482
0.830895602713346
0.892764376889517
0.965742600051945
1.04114755068631
1.07895798518816
0.971804553989179
0.942529404696561
0.921083161408337
1.0155094680276
1.30486033549255
1.13731157088999
0.538219340237097
0.213389242739209
0.135663959974233
0.108363101639758
0.0922030237062679
0.0820660832995157
0.0764907274718396
0.074464263597019
0.0749722544707205
0.0769775379737946
0.0796525101059206
0.0826109729813543
0.0858172987715111
0.0894043561884445
0.0936507652304708
0.0988936237218408
0.105458966472813
0.113674430909743
0.12388705195342
0.136304908606748
0.150702546607333
0.166004954126328
0.180257204966774
0.193016303616672
0.204815035775696
0.215618321317313
0.225434065594556
0.234353286358718
0.242418202343105
0.249655203386088
0.256084129515445
0.261731316845548
0.266624322625941
0.270794312424037
0.274275324209934
0.277104237112462
0.27932005217367
0.280963299461864
0.282075296195387
0.282697493195607
0.282870853269855
0.282635332680723
0.282029449234715
0.281089946307957
0.279851547029773
0.278346794997909
0.276606003456118
0.274657180516399
0.272526027859853
0.270236017750742
0.267808477574249
0.265262697125006
0.262616004000828
0.259883921004184
0.257080316832058
0.254217496161795
0.251306338460039
0.248356419039339
0.24537611280276
0.242372699380504
0.239352460985182
0.236320772623097
0.233282183395697
0.230240491219719
0.227198808863371
0.224159626429759
0.221124864131452
0.218095927785836
0.215073750134213
0.212058849391491
0.20905135911815
0.206051111005053
0.203057645525034
0.200070375938073
0.197088389043467
0.194112072677918
0.191138179536826
0.188158591831597
0.185168021246883
0.182172844155865
0.179182270307502
0.176210130958693
0.173271047347399
0.170393135298646
0.167588179421648
0.165023859307811
0.162386093440855
0.159702743926239
0.158724366802372
0.160764725064566
0.16632226097724
0.175376640467346
0.187720695801539
0.203029148131281
0.221018761416536
0.241380189245632
0.263799334090006
0.287994633711307
0.314111087036989
0.342454801218152
0.373362420937193
0.407346732435896
0.44507912425523
0.486853670686718
0.531603661365108
0.578259727273692
0.62552568974918
0.670703705886508
0.711933903644741
0.752725347051924
0.805990469026376
0.870450775512847
0.939147984498651
0.975757138979656
0.888255774636989
0.865147228637927
0.851152794084645
0.922197428259306
1.22896150118888
1.18706253302475
0.649762972963837
0.247573794686455
0.141955765825653
0.10957554065749
0.0925295119445918
0.0821245790227584
0.0763421734258885
0.0740387039290522
0.0741717293926067
0.0757544843931802
0.0780259865586573
0.0806446116073198
0.0835911422957069
0.0869999482615576
0.0911314455841454
0.0962919111053254
0.102770874008085
0.11084890669624
0.120802400036914
0.132754867696947
0.146425255101314
0.16080635536606
0.174203219795793
0.186286689054416
0.197507936222983
0.207808579048092
0.217188923948461
0.225720152060949
0.233432598595623
0.240349415143717
0.246489063330453
0.251875913507344
0.256536029298743
0.260499204291892
0.263798206311802
0.266468691560147
0.268548470164783
0.270076894999818
0.2710941170264
0.271640428556585
0.271755644959601
0.271478589787565
0.270846669361946
0.26989554231434
0.268658880230141
0.267168226191605
0.265452938209215
0.263540088696867
0.261454516723233
0.259218884913738
0.256853765195989
0.254377745730649
0.251807515583135
0.249158015708536
0.246442584896712
0.243673058279285
0.240859900838344
0.238012326525962
0.235138403215448
0.232245156548795
0.229338666892131
0.226424159177783
0.223506084619342
0.220588196268662
0.217673617070942
0.214764904715299
0.211864108980595
0.208972831672328
0.206092276876202
0.203223316540117
0.200366537430917
0.197522333547431
0.194690951045913
0.191872658918061
0.189067677681786
0.186277383403257
0.183501277238651
0.180735828265067
0.177979210018634
0.175239220465254
0.172528433327352
0.169865886876423
0.167274500990551
0.164791934330149
0.162446310996389
0.16042626439887
0.158420799758655
0.156249921331018
0.155373430485668
0.157034899355906
0.161800292512501
0.169742558517187
0.180699682226348
0.194367563348626
0.210473694818234
0.228734538265114
0.248861569286149
0.270608699869924
0.294121948932311
0.319701069779799
0.347649352939467
0.378404479272166
0.41253145434635
0.450226356499301
0.490500905031114
0.532438010950032
0.574981465824473
0.615795596278312
0.652998160015031
0.689157340813398
0.735088332680652
0.791677216919992
0.853808635158539
0.889066725295596
0.816752175445839
0.798573089739511
0.790667761152761
0.84299943431139
1.14470429383933
1.20671769577139
0.760921788403093
0.296322391731725
0.152746701438083
0.112489917450969
0.0938336077408053
0.0828780455860333
0.0767365900155472
0.0740768544688924
0.073807307492352
0.0749727035144964
0.076862181994292
0.0791651338302423
0.081871713652792
0.0851130507339088
0.0891304325093996
0.0942021638166877
0.100585355892639
0.108517261391661
0.118212913137427
0.129730447346107
0.142758077486852
0.156369408248135
0.169094729030815
0.180665150637611
0.191447154535414
0.201367101025287
0.210417347683124
0.218652879071503
0.226095527958377
0.232765749957121
0.238680734276868
0.243863313923881
0.248338459904848
0.252135026674193
0.255284972613965
0.257823213136092
0.259786863669054
0.261214602159928
0.262145913395801
0.262620422061714
0.262677271413585
0.262354607111712
0.26168915448989
0.260715890759158
0.259467811517282
0.257975816332591
0.256268596605723
0.254372589299596
0.252312025201494
0.250108984719537
0.247783486382001
0.245353595285714
0.242835517053053
0.240243745243812
0.237591204714365
0.234889357942454
0.232148335948006
0.229377056959773
0.226583333184381
0.223773974628517
0.220954886140023
0.218131157624957
0.215307146686179
0.212486555398661
0.209672500461836
0.206867580421408
0.204073937072457
0.201293319425344
0.198527141438106
0.195776553809708
0.193042504809434
0.190325841325343
0.187627380984053
0.184948090552477
0.18228910952638
0.179652675269958
0.177040309764528
0.174451925862916
0.171888789377839
0.169360215966355
0.166881394321069
0.164475244612669
0.162170864398001
0.160012683863
0.158041483452047
0.156453387167068
0.154958157651787
0.153254641497055
0.152543848786018
0.153969234436225
0.158128734178838
0.165169432932317
0.174976309841252
0.187273729854335
0.201803043781351
0.218301939975619
0.236503590545898
0.256191353530515
0.277508898245736
0.300748348264864
0.326191227471826
0.354222938699082
0.385329253942832
0.419642606515741
0.456269813767875
0.494423421503669
0.533196787065897
0.570471640577027
0.604269599566894
0.636398724391995
0.676036558435083
0.725516461126061
0.781369798457501
0.815003122678444
0.754650183812489
0.740470838922113
0.737386416957771
0.775910278007128
1.05707189268503
1.20087946037963
0.862821190039556
0.36156622998959
0.169316590783499
0.11738887858282
0.0961563537207381
0.0843165652121473
0.0776487950199719
0.0745446636059042
0.0738358440809734
0.074577794954223
0.0760940837041103
0.0780938713427175
0.0805706350536274
0.0836485054253546
0.0875491391877678
0.0925250600686963
0.0988041701256783
0.10658444976734
0.116028609932087
0.127145472679796
0.139610544971654
0.152582248857505
0.164782545930289
0.175967301161538
0.186420461153723
0.196057990686707
0.204863846724129
0.212879517946347
0.22012037617667
0.22660446428511
0.232347788916785
0.237371973342423
0.241701221783178
0.245363811827249
0.248391282013119
0.250818216839096
0.252681458976655
0.254019437986972
0.254871396133976
0.255276705182937
0.25527423665838
0.254901840312576
0.254195921115608
0.253191111813481
0.251920053623703
0.250413278161923
0.248699070171837
0.246803471884503
0.244750316769542
0.242561291317004
0.240256027732914
0.237852215586898
0.235365705039155
0.232810653085041
0.2301996662916
0.227543914548955
0.224853261521068
0.22213638414356
0.219400881779996
0.216653381030684
0.213899633686629
0.211144607961544
0.208392572500987
0.205647174714645
0.202911513126271
0.200188207001588
0.197479461443612
0.194787135086304
0.192112804209582
0.189457840101852