/*--------------------------------*- C++ -*----------------------------------*\
  =========                 |
  \\      /  F ield         | OpenFOAM: The Open Source CFD Toolbox
   \\    /   O peration     | Website:  https://openfoam.org
    \\  /    A nd           | Version:  7
     \\/     M anipulation  |
\*---------------------------------------------------------------------------*/
FoamFile
{
    version     2.0;
    format      ascii;
    class       volScalarField;
    location    "5000";
    object      k;
}
// * * * * * * * * * * * * * * * * * * * * * * * * * * * * * * * * * * * * * //

dimensions      [0 2 -2 0 0 0 0];

internalField   nonuniform List<scalar> 
15600
(
0.000322924283132105
0.000295205456355325
0.000174615611813793
7.14710303063358e-05
1.87504398214439e-05
1.21451396202421e-05
1.27934819402805e-05
9.91970753993174e-06
7.95442984908201e-06
7.08543858523646e-06
6.67085659768743e-06
6.63243670441281e-06
7.00275506422738e-06
7.85057941288186e-06
9.33794138178342e-06
1.16101167825807e-05
1.48331767833179e-05
1.91177030155352e-05
2.46999219348202e-05
3.17967084622534e-05
4.04937768336491e-05
5.07229387232512e-05
6.27069897115261e-05
7.64717561203347e-05
9.13373647893618e-05
0.000106612487537552
0.000121383593984166
0.000134904770287781
0.000168592796452294
0.000214738736246105
0.000254064472606633
0.000288396056087779
0.000319736606216673
0.000348423198593095
0.000374111920205919
0.000396863448748442
0.000416986787480067
0.000434521757061717
0.000449541566467188
0.000462133155952194
0.000472406136613129
0.000480489387118752
0.000486529345242687
0.000490683822484922
0.000493117933838684
0.000493998701994665
0.000493491378880146
0.000491755813691648
0.000488944043319651
0.000485198314572002
0.000480649999380406
0.000475418927999842
0.000469613185143721
0.000463329307815473
0.000456652603194034
0.000449657888629112
0.00044241039162671
0.000434964667741396
0.0004273687792471
0.0004196637692405
0.000411882534345132
0.000404053387102985
0.000396198962327611
0.000388336235018159
0.00038047816817405
0.000372633915469924
0.000364809156928767
0.000357006394452189
0.00034922521742478
0.000341462448055505
0.000333712316637582
0.000325966420557221
0.000318213853327221
0.000310440874734004
0.000302631115100973
0.000294764683312727
0.000286818781351815
0.000278765576842682
0.00027057406641407
0.000262205335990966
0.000253622639045117
0.000244703608886314
0.000235568741943476
0.000226176683546012
0.000216408433131952
0.00020607604647017
0.000195063330359761
0.000183098207509685
0.000170045146542516
0.000155497444208459
0.000138909305798433
0.000117903029454512
0.000105631705152141
0.000115158198347497
0.000125660493501743
0.000137848263220266
0.000148618519524288
0.00015851018767912
0.000168341996834951
0.000179195054700173
0.000189004727716152
0.00019825094397179
0.000206663446484554
0.000214011964951419
0.000216765934937122
0.000216739926361037
0.000215322120359683
0.000213189498241194
0.000211678009973402
0.000213701078957024
0.000224737264084607
0.000242863877288365
0.000271940322582568
0.000322178110812978
0.000398914013964051
0.000478327881032287
0.000432597348641927
0.000349055969235226
0.000284788679007855
0.00030616889387706
0.00550545201885294
0.00505151765578798
0.00317240708839805
0.00135247388831023
0.000358982915497199
0.0002248087798777
0.000236525191615374
0.00018463891589207
0.000147665905052788
0.00013108688918837
0.000123065718264803
0.000122022462563738
0.000128430885117391
0.000143522690435905
0.000170215821692751
0.000211107939585814
0.000269105571954616
0.000346045018725545
0.000445771731632131
0.000571515401538997
0.000723854290049304
0.000900560232872961
0.00110366923065295
0.00133133957898622
0.00157129380257574
0.00181238130157275
0.00204430780932312
0.00228456211117333
0.00280069321295409
0.00343893443713965
0.00395969202604654
0.00440192366865922
0.00479711792133924
0.00515273697614221
0.00546627845375824
0.00573971467468358
0.00597919890389017
0.00618644177434654
0.00636329449074653
0.00651149344061968
0.00663281424449923
0.0067290685084294
0.00680211791940298
0.00685383991331172
0.00688610981972799
0.00690076759835797
0.00689959698973607
0.0068843024592266
0.00685649458995369
0.00681767741351537
0.00676924214426973
0.00671246337374049
0.00664849850801454
0.0065783901138834
0.00650306910632362
0.00642336105392252
0.00633999580682825
0.00625359150263806
0.00616470072640753
0.00607380571608315
0.00598130019483307
0.00588752527369699
0.00579276113710386
0.00569722623684767
0.00560109159620473
0.00550448336028102
0.00540748575349267
0.00531014364467244
0.00521246476833708
0.00511442068609067
0.00501594788945522
0.00491694662509996
0.00481728112892312
0.00471677505683863
0.00461521178577256
0.00451232330395721
0.0044077935223147
0.0043012330872323
0.00419219337548842
0.00408011177142232
0.00396442010446187
0.00384341282151382
0.00371880101298753
0.00358986384741672
0.00345473249300043
0.00331069749641412
0.00315568692431303
0.00298567407585005
0.0027976937862579
0.00258561732911525
0.00233909237804382
0.00202121785939514
0.00182223031206432
0.00195529944155469
0.00212366883184755
0.00231902505162867
0.00249658650520027
0.0026639951077397
0.00283368515354955
0.00301985257971633
0.00319136342590137
0.00335372123766026
0.00350247877054784
0.00363235768763167
0.00369091950275002
0.00370586278120525
0.00369853148343182
0.00367972534814468
0.0036714059655728
0.00372229744380349
0.00391735684791348
0.00422043123003083
0.00468996100486964
0.00545953829536155
0.00655823056131857
0.00761726250507524
0.0070979066067266
0.00600149215327647
0.00503673351585543
0.00527852535508338
0.0177093592286028
0.0164831460041023
0.0126313417624499
0.00693310555920277
0.00205016572332636
0.00114153872815988
0.00119114258534201
0.000949531445611549
0.000765207760134924
0.000678573074023191
0.000635906381558939
0.000627842867078154
0.000656555288310446
0.000727834344458061
0.000854403830404857
0.00104507674439069
0.00130633724000599
0.00163718011278818
0.00203956476753728
0.00250716420800636
0.0030231551538044
0.00356860195368895
0.00414020469814576
0.00472828063912243
0.00531286626234524
0.00589348224480995
0.0064984261747739
0.00721388144415029
0.00836046925133278
0.0095914916589899
0.0105800705630997
0.0114210923862182
0.0121695729946721
0.0128388609821064
0.0134314415572769
0.0139538773862886
0.0144137903953444
0.0148149950539618
0.0151610616873387
0.015455206254315
0.0157005898422798
0.0159003515251569
0.0160576566084213
0.0161756673715182
0.0162575268738427
0.016306319568006
0.0163250436452964
0.0163165799766712
0.016283670256721
0.0162288979044954
0.0161546769668511
0.0160632446541015
0.0159566584031152
0.0158367969482028
0.0157053637379081
0.0155638929264447
0.015413762604545
0.0152561787169423
0.0150922235433193
0.0149228625841375
0.0147489184558754
0.0145711101367192
0.0143900505837149
0.0142062475869787
0.0140201192225445
0.0138319993419011
0.0136421422210436
0.0134507263868478
0.0132578576741693
0.0130635705504669
0.0128678289426807
0.0126705241686465
0.0124714733215563
0.0122704120141889
0.0120669904411695
0.0118607568403443
0.0116511526092485
0.0114374773594886
0.0112188870616362
0.0109943237729287
0.0107625964998994
0.0105213829073988
0.0102716430535538
0.0100126382262464
0.00974071065420321
0.00945071315274483
0.00913745034728796
0.00879289803818566
0.00840796690808762
0.00796935198688795
0.00744955589237108
0.00676276645392011
0.00626245322741013
0.00644070842412423
0.00682876286700607
0.00731937518790418
0.00781576048842296
0.00831931112852243
0.00885313268775313
0.00943795280758988
0.0100133136702866
0.0105720693174326
0.0111010574159646
0.0115813494821555
0.0119129940922053
0.0121371973760985
0.012304311971995
0.0124459094852123
0.0126102435277764
0.0129089903125443
0.0135256081520705
0.0143780057055909
0.0155372537197965
0.0171664139726143
0.0192120825680559
0.0209159660813337
0.0202925214918336
0.0187720029092473
0.0175309091666999
0.0177452632674692
0.026327499470361
0.0250809255479857
0.0211351268769165
0.0144991262330235
0.00614063059835166
0.00320053184615899
0.00314367872990391
0.00260356680458766
0.00214807085265886
0.00191027853914298
0.00178271146372618
0.00173999015116761
0.00178690693004428
0.00193224403698246
0.00219495465387718
0.00257640632140643
0.00306648031390736
0.00364117909894666
0.00428712875195782
0.00498409052886307
0.00570708010274315
0.00644092847478238
0.0071935468498342
0.00796173371497128
0.00873476527715035
0.00953168022719614
0.0104147234214773
0.0115100051038305
0.0130596189195015
0.0146206104514378
0.0158823794591969
0.0169670443498606
0.0179284506764466
0.018783147143206
0.0195405119201358
0.0202104851381333
0.0208008852672013
0.0213167350775378
0.0217625702641788
0.0221425000879452
0.0224605368897159
0.0227206455366706
0.022926797974872
0.0230829473314563
0.0231930087693613
0.023260818037695
0.0232900993209108
0.0232844310512492
0.023247220477582
0.0231816822009564
0.0230908250647189
0.0229774436171724
0.0228441147056626
0.0226931984526859
0.0225268427613959
0.0223469898037036
0.0221553918387362
0.0219535962888395
0.0217429958159899
0.0215248330645121
0.0213001848545379
0.0210699940048296
0.0208350733669874
0.0205961096365394
0.0203536773658509
0.0201082465042751
0.019860188407855
0.0196097807027877
0.0193572110775218
0.0191025793126439
0.0188458982843627
0.0185870922899914
0.018325994763951
0.0180623412420966
0.0177957632218384
0.0175257721814773
0.0172517492488983
0.0169729127310962
0.0166883033765469
0.0163967223718852
0.0160967613790082
0.0157861894389523
0.0154641489577871
0.0151299626697295
0.0147799984797339
0.0144087075840715
0.0140097659601041
0.0135740612406027
0.0130901659258165
0.0125416439777577
0.0118998174865221
0.0110593618311042
0.0104005317906958
0.0105150076003746
0.0109816052473191
0.0116296162246346
0.0123396139463288
0.0130938427509134
0.0139121179174958
0.0148100938202524
0.0157212680230177
0.016621330372276
0.0174884515687946
0.0182918868051828
0.0189235753959689
0.0194147527134469
0.0198284064616108
0.0202136850875112
0.0206327130207448
0.0212197133002888
0.0221805420866887
0.0234248168936225
0.024986306083363
0.0269960891066035
0.0294179131061995
0.0315465387188983
0.0310178982242491
0.0287176193959853
0.0266160983419958
0.0263793973058928
0.0321713955443352
0.0310618942375247
0.0272552087028749
0.0207437302832505
0.0115827036513106
0.00634408221977157
0.00558388012398422
0.00476571326638207
0.00404461080249486
0.00361528831917826
0.00335608584635064
0.00323173066781699
0.0032493475958951
0.0034178800421618
0.00375492121723763
0.00424648851300908
0.00486181900958109
0.00556080505359855
0.00632369531373131
0.00712725374713271
0.00794952093744272
0.00878467461955166
0.00964801076015043
0.0105404211511627
0.0114596712439857
0.0124383701696931
0.0135560084222274
0.0149467041545487
0.0167700170238348
0.0185452216069
0.0199943401920506
0.0212474048320848
0.0223562388991172
0.0233399225327825
0.0242129834617206
0.02498655734598
0.0256686855613987
0.0262651315810616
0.0267810422064727
0.0272211237036672
0.0275899693001099
0.0278921189720998
0.0281321122736761
0.0283144636937562
0.0284436391521142
0.0285240123423631
0.028559828374153
0.0285551669056685
0.0285139137145059
0.0284397373122016
0.0283360741718995
0.028206119345155
0.0280528226834677
0.0278788897557608
0.027686787059856
0.0274787521642651
0.0272568007816296
0.0270227287579698
0.0267781500313293
0.0265245048947066
0.0262630520716511
0.0259948948359961
0.0257209893209506
0.0254421508798378
0.0251590672519132
0.0248723074636064
0.0245823289454223
0.0242894832930918
0.0239940207480663
0.0236960929278165
0.0233957541908003
0.0230929605436363
0.0227875672450202
0.0224793224143625
0.0221678599095148
0.0218526845750843
0.0215331590135884
0.0212084743155948
0.0208776280218499
0.02053937026804
0.0201921995345715
0.0198339869840853
0.0194629233524725
0.0190776183761844
0.0186748247705367
0.0182491295546951
0.0177938363607254
0.0172995537173654
0.0167539906788747
0.016139682900922
0.0154281150282653
0.0145102906669059
0.0137537904697922
0.0137829509152107
0.0142586137946788
0.0149818369903489
0.0158196859912804
0.0167365710767624
0.0177444404680662
0.0188523913850587
0.0199943649309367
0.0211347439375244
0.0222449437806458
0.0232860445677825
0.0241520842562968
0.0248624312769693
0.0254819875617428
0.0260699449853498
0.0266969324484108
0.0275055328524164
0.0287059716956202
0.0302270273587231
0.0320834366068564
0.0343817554183432
0.037112887141097
0.039656475380307
0.0395786599925535
0.0369593396358966
0.0336946825202078
0.032474477225422
0.0369822224442014
0.035840091724704
0.0321426202864459
0.0256533461928565
0.0168828618716336
0.0101168247369786
0.00802096195806774
0.00688960973444744
0.00596905527725304
0.00536387027249119
0.00496647598352344
0.00474244576878643
0.00470201175549408
0.00485634172030225
0.00522051424955163
0.00576680079191477
0.00644761812136711
0.00721378383005235
0.00804288398387991
0.00891182180218161
0.00980305499826977
0.0107177771472516
0.0116747832592005
0.0126776269058764
0.013730818567508
0.0148754822218228
0.0161979151474387
0.0178255066851169
0.0198488221939614
0.021779484718273
0.0233720192048217
0.0247554228637702
0.0259794937639844
0.0270658111614841
0.02803138782728
0.0288878278166854
0.0296434386813599
0.0303045082214556
0.0308766353497665
0.0313649830886277
0.0317745954264139
0.0321104650809221
0.0323775822637032
0.0325809102680512
0.0327253574360586
0.032815731105095
0.0328566973316451
0.0328527414646616
0.0328081370221557
0.0327269205249551
0.0326128752287594
0.0324695209656961
0.0323001100095594
0.0321076279380859
0.0318948010283331
0.0316641042029402
0.0314177675359088
0.0311577884530177
0.0308859599613234
0.0306038823191554
0.0303129612950482
0.0300144305306035
0.0297093626472576
0.0293986776899605
0.0290831559973528
0.0287634481104942
0.0284400828309152
0.0281134737892481
0.0277839245833265
0.0274516321731459
0.0271166886929911
0.0267790809644895
0.0264386882718529
0.0260952766756488
0.0257484915744229
0.0253978441686957
0.0250426968359594
0.0246822365980454
0.0243154492382607
0.0239410716861568
0.0235575669927945
0.0231628833847616
0.0227548246627988
0.0223313517976913
0.0218893711767476
0.0214237431355332
0.0209277546495076
0.020392094647503
0.0198042626685344
0.019146717360705
0.0183912397969968
0.0174314633962087
0.0166111652743496
0.0165579151578921
0.0170125151992015
0.0177685173705593
0.0186847700984676
0.0197113422289099
0.0208512450246908
0.0221067595922923
0.0234130697876545
0.0247272714499771
0.0260153468441533
0.0272322516220557
0.0282762121761401
0.0291579993199429
0.0299408857904843
0.0306893814689868
0.0314799290424021
0.0324587535404566
0.0338341136092346
0.0355571159701464
0.037636899497371
0.0401611271936406
0.0431331599114849
0.0459815311525616
0.04635989564515
0.0438683351716308
0.03997286870773
0.037792691363681
0.041321044283436
0.0400055373394835
0.0363945533427373
0.0298057499673008
0.0214564605843268
0.0140884305617955
0.0104061060172089
0.00882196644802259
0.00773294566039738
0.0069817387485886
0.00646289490710315
0.0061466526301225
0.00604567056147329
0.00617425924845126
0.00654546362404407
0.00712112368211345
0.00784105918239258
0.00865077037784373
0.00952653496158668
0.0104462844332246
0.0113964528878477
0.0123831845474965
0.0134270873241809
0.0145338031755058
0.0157129282126019
0.017010299714295
0.0185126203709323
0.0203344160432365
0.0225123436216571
0.0245655012545178
0.0262762480881747
0.0277683483880018
0.0290896699066075
0.0302637673083946
0.0313086517394577
0.0322361730418029
0.0330549033487377
0.0337715374212474
0.0343920401910056
0.0349219529114578
0.0353666969836898
0.0357316482570365
0.0360221809176171
0.0362436426690872
0.0364013222389626
0.0365004007813252
0.0365459079029286
0.0365426797281549
0.0364953252771708
0.0364081995901243
0.0362853860754112
0.036130685620984
0.0359476121186784
0.035739393636805
0.0355089824239618
0.0352590553642272
0.0349920304352176
0.0347100783940829
0.0344151467825212
0.034108974112169
0.0337930928793595
0.0334688496241816
0.0331374179674393
0.0327998087802663
0.0324568831176508
0.0321093629577659
0.0317578400981212
0.0314027834771789
0.0310445449559824
0.0306833633566027
0.0303193667766266
0.0299525727167054
0.0295828862014524
0.029210094816043
0.0288338613606358
0.0284537114732197
0.0280690185349196
0.0276789794834196
0.0272825872062501
0.0268785877815991
0.0264654436346229
0.026041170203829
0.0256034372657678
0.0251498179123056
0.0246772208334111
0.0241807815986806
0.0236539546024938
0.0230877109873866
0.0224697178079277
0.0217828355855068
0.0209993629909854
0.0200183553584701
0.0191574743540583
0.0190315642604804
0.0194520604538825
0.0202172785069889
0.0211821113660112
0.0222855978867039
0.023521998543801
0.0248868433616592
0.0263161487324508
0.0277619655170088
0.0291856992802544
0.0305374332091093
0.0317198313511522
0.0327380077768726
0.0336527391158533
0.0345313047338506
0.0354543519118293
0.0365696702634685
0.0380807535589995
0.0399578042135734
0.0422102535728764
0.0449107473987684
0.0480638824672482
0.0511198578628621
0.0518514787866927
0.0496240015311617
0.0455408416803182
0.0426843852522078
0.045327136697962
0.0437829853662914
0.0402376318217324
0.0335818383853372
0.0253298654887013
0.0179618327264778
0.0128444405420999
0.0106148994446606
0.00934292915421445
0.00846672290376411
0.00784427478701187
0.00744778201153001
0.00729078772199129
0.00739031347487078
0.007758172365585
0.0083491337488236
0.00909394769084864
0.00993480916320538
0.0108472915824477
0.0118106130568182
0.0128145303888984
0.0138687571800269
0.0149949494547311
0.0162003884339872
0.0174981820224387
0.018936001601658
0.0205970405679342
0.0225811400362021
0.0248841921997009
0.0270399396620823
0.0288531950145365
0.0304405376909107
0.0318480769844467
0.0331005993312365
0.0342164340803448
0.0352075993745648
0.0360829099011074
0.0368493952287625
0.0375133332469162
0.0380805944790074
0.0385569322408218
0.0389480622494255
0.0392597012736403
0.0394975413947152
0.0396672131278779
0.0397742341435025
0.0398239617446631
0.0398215484415386
0.0397719059642522
0.0396796767195991
0.0395492148387241
0.0393845745964225
0.0391895056058233
0.0389674558516492
0.0387215787642256
0.038454733785643
0.0381695084703516
0.0378682287619338
0.0375529810214319
0.0372256281161989
0.0368878161729065
0.0365409933413712
0.0361864242598677
0.0358252016926744
0.0354582597581895
0.0350863854101694
0.0347102281083182
0.0343303078600997
0.0339470216418257
0.03356064807209
0.0331713502700049
0.032779176608165
0.0323840592983001
0.0319858101677569
0.0315841136785448
0.0311785156777776
0.0307684084397149
0.0303530085812773
0.029931329091833
0.0295021405746267
0.0290639283720636
0.0286147752797417
0.0281523374652711
0.0276740008971355
0.0271766469401545
0.0266556621567943
0.0261047636224361
0.0255153211202793
0.0248754002233515
0.0241685144872402
0.0233676867096996
0.0223785554099578
0.0214937972688852
0.0213069729781386
0.0216888562454674
0.022449657669164
0.0234439365026991
0.0246025987999428
0.0259118498282905
0.027360733125018
0.0288855326627594
0.0304345165176293
0.0319650981598789
0.0334233752613012
0.0347162929824929
0.0358454162823239
0.0368690625974911
0.037855938328988
0.0388898445699522
0.0401189103860869
0.0417405032346216
0.0437400408224271
0.0461292519391799
0.0489678163500937
0.0522541713340306
0.0554448330317035
0.0564277768018703
0.0544678866572742
0.0504253529239791
0.0471626777738623
0.04903363936992
0.0472631968831371
0.0437674569828309
0.0371525191014898
0.0287419827095697
0.0215951449986137
0.0154319777251951
0.0123565145060054
0.0108486056652066
0.00985551567476429
0.00914226699919602
0.00867493173391929
0.00846604762602686
0.00853439655235958
0.0088913073199045
0.00948745076554179
0.0102473237066502
0.0111109735768022
0.0120535461243977
0.0130555361922425
0.0141093862391754
0.0152274135037842
0.0164318912945263
0.0177312731009461
0.0191407761692924
0.0207077827141872
0.0225097191948145
0.0246320217201009
0.0270402107101847
0.0292857101276034
0.0311910446114736
0.0328647648773396
0.0343512534444186
0.0356759305601943
0.0368571121803394
0.0379069467561031
0.0388344629155634
0.0396469766457417
0.0403510434914523
0.0409528309376484
0.0414583946748189
0.0418737623154682
0.042204966563756
0.0424580180847541
0.0426388642779484
0.0427533351802093
0.0428070924913236
0.0428055826596831
0.0427539986274712
0.0426572496488212
0.0425199411059724
0.0423463622744018
0.0421404815251312
0.041905951750446
0.0416461094804391
0.041363985266537
0.0410623230993101
0.040743591794779
0.0404100058551908
0.0400635430468221
0.0397059541752211
0.0393387812477406
0.038963373075042
0.0385808981919688
0.0381923585335619
0.0377986016160219
0.0374003309433552
0.0369981147504253
0.0365923930655433
0.0361834830189244
0.0357715822785507
0.0353567704432723
0.0349390081807126
0.0345181337653396
0.0340938566539931
0.0336657473583091
0.0332332230405668
0.032795527395675
0.032351703226787
0.031900557194642
0.0314406146518023
0.0309700307052589
0.030486510323344
0.0299873870414268
0.0294695363844116
0.02892858349361
0.02835855761244
0.0277512947838899
0.0270954031005856
0.0263751819127268
0.0255645454850604
0.0245760417883771
0.0236796441372908
0.0234434376081213
0.0237867085826762
0.0245352308874844
0.0255461558296898
0.0267447506427892
0.0281100738314082
0.0296250818282841
0.0312258499534713
0.0328576007311152
0.0344741769486755
0.0360183840686616
0.0374012321820829
0.0386221970525694
0.0397374570162651
0.0408164454480369
0.0419453754757707
0.0432718157230626
0.0449863046547329
0.0470861388888304
0.0495855011731238
0.0525318934089603
0.0559128034898698
0.059183551518254
0.0603364092533043
0.0586080485892776
0.054706755645321
0.0512296306788807
0.0524567445846998
0.0504891101917911
0.0470349199989978
0.0405695295332536
0.0318700731870007
0.0249497259116687
0.0182107957391904
0.0141300519303121
0.0122991377142927
0.0111836155902687
0.0103868846366327
0.00985477589411919
0.00959637962170017
0.00963110853425122
0.00997034947247957
0.0105631812911545
0.0113301526827164
0.0122099145770526
0.0131772915810679
0.0142139090222749
0.0153143145233856
0.0164927071767961
0.0177716684281075
0.019160348707679
0.0206748892781552
0.0223608751176903
0.0242888071570123
0.0265309014506548
0.029030199091655
0.0313567221975843
0.0333468741920522
0.0351008767748912
0.036661314632202
0.0380537951328689
0.0392964452448834
0.0404015136237744
0.0413782131070754
0.0422341113587461
0.0429760169605197
0.0436103724867651
0.0441435166096932
0.0445817706871344
0.0449314662060118
0.0451989157958197
0.0453903676440551
0.0455119484429928
0.0455696090230122
0.045569074944547
0.0455158060547086
0.0454149646904021
0.0452713943268752
0.0450896067244058
0.0448737785627142
0.0446277544011456
0.0443550441199765
0.0440588403284797
0.0437420342797791
0.0434072290205405
0.0430567596683048
0.0426927122122673
0.0423169357951169
0.0419310607577242
0.0415365152082363
0.041134539094747
0.0407261984343607
0.040312398177534
0.0398938933293031
0.0394712983840038
0.0390450950353421
0.0386156381256062
0.0381831596885342
0.0377477710003238
0.037309462337779
0.0368681003038174
0.0364234221015198
0.0359750265412625
0.0355223604890261
0.0350647006506472
0.0346011273220642
0.0341304923869387
0.0336513742840555
0.0331620073993762
0.0326601808359903
0.0321432622536196
0.0316081642961724
0.0310507471346955
0.0304653803897087
0.0298444052601945
0.0291770612452193
0.0284485004505989
0.0276336574047613
0.0266518810286643
0.0257529325805387
0.0254778144740377
0.0257848656050967
0.0265168271384987
0.0275356441098309
0.0287630573758946
0.0301719602571607
0.031739708737063
0.0334018252333599
0.0351009369501982
0.0367876373395018
0.03840201498086
0.0398589540706312
0.0411568558942907
0.0423501400040951
0.0435086074429529
0.0447203133731448
0.0461315139292044
0.0479255529978168
0.0501089138198007
0.0526975138267493
0.0557267648067588
0.0591702850949853
0.0624794335878929
0.0637401417462409
0.0622004108043357
0.0584776319914771
0.05491066231503
0.0556138341273352
0.0534865010120424
0.0500733210609926
0.0438344066790009
0.0348439046332686
0.028019625731242
0.0211518650041833
0.0160090501944538
0.0137387849417118
0.0124800776206031
0.0116018302989592
0.011008088238645
0.0107009068341137
0.0106990751970762
0.0110143053379762
0.0115961305565163
0.0123631102478689
0.0132530726515134
0.0142405420300639
0.0153080597415307
0.0164517587913576
0.0176871468754998
0.0190368497921361
0.0205102597515612
0.0221234801505716
0.0239192756947258
0.0259607699768205
0.0283084295063107
0.0308887095180235
0.0332900753203518
0.035359810385033
0.0371897787986456
0.0388206408121649
0.0402778529942936
0.0415792483233677
0.0427371439364117
0.043760907791086
0.0446583327599912
0.0454364627756969
0.0461020006760448
0.0466615556776224
0.0471217315285469
0.0474891479251376
0.0477704091933525
0.0479720542904932
0.0481004966551593
0.0481619664826366
0.0481624588165218
0.0481076909885282
0.0480030692288042
0.047853666210749
0.0476642078432005
0.0474390724067701
0.0471822849069058
0.0468975237527958
0.0465881364577373
0.0462571549987986
0.0459073104618881
0.0455410531588904
0.0451605724832878
0.0447678113206024
0.0443644843170436
0.0439520953232082
0.0435319525260347
0.0431051833054323
0.0426727477805855
0.0422354506359112
0.0417939512445166
0.0413487720344426
0.0409003050881688
0.0404488168189999
0.0399944506998727
0.0395372276970224
0.0390770444115809
0.0386136681615915
0.038146729148549
0.0376757079793321
0.0371999193341878
0.0367184873384805
0.036230316694295
0.0357340493557454
0.035228006569583
0.034710083457953
0.0341777373590505
0.0336279652943814
0.0330568654509943
0.0324591656492901
0.0318277335201348
0.0311524923817787
0.0304194754353874
0.0296047322105739
0.0286340837001992
0.0277394193811451
0.0274345663647904
0.0277090010244133
0.0284224276287261
0.029443114381986
0.0306910260762238
0.0321338696417749
0.0337439382787719
0.0354559799272481
0.0372103172199755
0.0389545541658705
0.0406265581427822
0.042144938062923
0.0435077357367664
0.0447679729753176
0.0459956362064414
0.0472801456300527
0.0487657761456474
0.0506285009929923
0.052881816682289
0.0555422630413398
0.0586329743239626
0.0621122415065203
0.0654274815072666
0.0667492928649395
0.065358559487176
0.0618213115200726
0.0582428123883046
0.0585245782671777
0.056274640742255
0.052907199615589
0.0469350203534279
0.0377494456385246
0.0308391280354405
0.0241673166998797
0.0180556552238794
0.0152097804592944
0.0137694815816387
0.0128058829400924
0.0121510395054369
0.0117943815042131
0.0117526040868443
0.0120377020352396
0.0126012624256816
0.0133615676357414
0.0142561412542258
0.0152591958090011
0.0163539454492599
0.0175376441501885
0.0188266293370911
0.0202433262663821
0.0217969551944957
0.0235028279585358
0.0254002363000501
0.0275449102530307
0.0299870204309214
0.0326408061504319
0.0351124986270862
0.0372579454954412
0.0391607632051545
0.040859536343629
0.0423793044333514
0.0437375322750199
0.0449465695647966
0.0460159112143262
0.0469535540036085
0.0477667642768975
0.0484624953419728
0.0490476195790195
0.0495290167558519
0.0499135890360388
0.0502082268272318
0.0504197542705049
0.0505548658491907
0.0506200653229091
0.0506216113140237
0.0505654727035263
0.050457293671578
0.0503023702027183
0.0501056379253832
0.0498716692512155
0.0496046644750639
0.0493084662091727
0.0489865717878628
0.0486421492104507
0.0482780531168269
0.0478968450594989
0.0475008143112856
0.0470919941255785
0.0466721804732691
0.0462429503155088
0.0458056777315201
0.0453615494574206
0.0449115791218425
0.0444566197748919
0.0439973747022578
0.0435344064582023
0.0430681441274638
0.0425988886597043
0.0421268162973393
0.0416519797313198
0.0411743070890851
0.0406935979117437
0.0402095165120293
0.039721580738316
0.0392291475362647
0.0387313902666487
0.0382272729438115
0.0377155096416224
0.0371945159796186
0.0366623078946207
0.0361164691524248
0.0355541231087104
0.0349716147032495
0.0343640418954432
0.0337248087553737
0.0330445499175765
0.0323101844517998
0.0314989420707735
0.0305426852064771
0.0296575039738559
0.0293308201241558
0.0295767726232349
0.0302711989632484
0.0312896482292864
0.0325517198412556
0.0340208653770955
0.0356648757333656
0.0374176036180321
0.0392172688722777
0.0410087086817403
0.0427280072492519
0.0442973881844018
0.045715046774964
0.0470329231577225
0.0483210919236602
0.0496699085726516
0.0512210567273075
0.0531430752661467
0.0554546762114769
0.0581717839239732
0.0613051048206542
0.0647973538362531
0.0680935240533126
0.0694411719017187
0.0681656291319127
0.0648068636084931
0.0612650115745064
0.0612093048680042
0.0588699144873816
0.055555694750559
0.049862380681146
0.0406316988648388
0.0334627254542043
0.0271422091708347
0.0203178532883477
0.0167554438570318
0.015074653831538
0.0140148518642637
0.0132968268894776
0.0128886962480746
0.0128031670980574
0.0130521422013354
0.0135904197102297
0.0143375183669163
0.0152311835451546
0.0162453095590141
0.0173635360160385
0.0185838219471552
0.0199229186946177
0.0214028170799031
0.0230322045070912
0.0248250306478365
0.0268167357118444
0.0290558926351078
0.0315836798932486
0.034305350146942
0.036843989418042
0.0390622290959251
0.0410356190381833
0.0428005114411254
0.0443813081151536
0.0457950431837125
0.0470540583879226
0.0481679480948951
0.049144894952481
0.049992378162943
0.0507175954720176
0.0513276789021849
0.0518297817084665
0.0522310865011714
0.0525387677251387
0.0527599324976776
0.0529015538275213
0.0529704062121788
0.0529730087184366
0.0529155784158892
0.0528039938711001
0.0526437708562795
0.0524400527349392
0.0521975984141916
0.0519207823929679
0.0516136076716439
0.0512797177846133
0.050922413364247
0.050544669338286
0.0501491555947259
0.0497382586844877
0.0493140997260791
0.0488785537869978
0.0484332689699922
0.0479796834951716
0.0475190419625464
0.0470524102894581
0.0465806889464858
0.0461046244676495
0.0456248191620334
0.0451417390518457
0.0446557198879958
0.044166971298865
0.0436755787085993
0.043181503202303
0.04268457846983
0.0421845053911265
0.0416808421736852
0.0411729918346229
0.0406601817042327
0.040141440792727
0.039615562588331
0.0390810642022403
0.0385360932066801