/*--------------------------------*- C++ -*----------------------------------*\
  =========                 |
  \\      /  F ield         | OpenFOAM: The Open Source CFD Toolbox
   \\    /   O peration     | Website:  https://openfoam.org
    \\  /    A nd           | Version:  7
     \\/     M anipulation  |
\*---------------------------------------------------------------------------*/
FoamFile
{
    version     2.0;
    format      ascii;
    class       volScalarField;
    location    "5000";
    object      kDeficit;
}
// * * * * * * * * * * * * * * * * * * * * * * * * * * * * * * * * * * * * * //

dimensions      [0 2 -3 0 0 0 0];

internalField   nonuniform List<scalar> 
15600
(
0.0274193993329395
0.0250409781961796
0.0149005796070878
0.00631829680758889
0.00179218496269316
0.0012306973531922
0.00130836305158632
0.000981037212663297
0.000736737888432685
0.000599130139150783
0.000505655685000114
0.000451655857102871
0.000432318067395182
0.000442985262874418
0.000485175381400251
0.000559167896895568
0.000664257135792034
0.000791937996065332
0.000940934285119935
0.0011082769763957
0.0012861278728969
0.00146520766332929
0.00165715837050101
0.00186994687297819
0.00209530466281086
0.00233283624279287
0.0025833278229828
0.00285443571495455
0.00357876477797867
0.00455830950625996
0.00539307813107701
0.00612183402155954
0.00678709845111684
0.00739602489903576
0.00794130817951699
0.00842424549202862
0.00885139285095107
0.00922359628907948
0.00954241018657342
0.00980968041412825
0.0100277340631949
0.0101993071686552
0.0103275084432872
0.0104156879658012
0.0104673507857522
0.0104860423845771
0.010475270602098
0.0104384285422592
0.0103787434354688
0.0102992346699652
0.0102026907621245
0.0100916552198033
0.0099684222147715
0.00983504079733757
0.0096933216379111
0.00954485274373959
0.0093910185855956
0.00923297706788838
0.00907174833583702
0.00890820349002821
0.00874304074883674
0.0085768610398019
0.00841014473684598
0.00824325211396232
0.00807645828917128
0.00790995752505835
0.00774387035708475
0.0075782498644693
0.00741308730804436
0.00724831521412068
0.00708381109418136
0.00691939657374334
0.0067548401308874
0.00658985009342384
0.00642407897466422
0.00625710453799826
0.00608844284232686
0.00591750307998575
0.00574362713226512
0.00556598895679442
0.00538380853889071
0.00519448805423622
0.0050005865247733
0.0048012249427961
0.0045938771181446
0.00437455358535224
0.00414078791467175
0.00388680451612719
0.00360972623734568
0.00330091945174356
0.00294879679660228
0.00250288356494288
0.00223516549441016
0.00245095932258252
0.00274976916379238
0.00316243245783815
0.00363431470782667
0.00418916074814246
0.00486305795748348
0.00569173255228771
0.00658812467226841
0.00755270043000805
0.00856135295414122
0.00958435903054201
0.0104404451353462
0.0112618007064236
0.0121505572068777
0.0131619218537828
0.0144154882353433
0.016199477830233
0.0190043890890911
0.0224954997100252
0.0268963951518966
0.0329515845145755
0.0404271856496242
0.0457190868191873
0.0382436702823861
0.0297873309064623
0.0241584615457264
0.0259971859323609
0.0993202084590059
0.0911995630702636
0.0619082298643765
0.0268133594818269
0.00711944490209381
0.00450395835410598
0.00476645695479079
0.00360599368028232
0.00270783353309893
0.00219755852766188
0.0018521066682893
0.00165220678057415
0.0015787702970407
0.00161648314306395
0.00177125924041205
0.00204413205997267
0.00243005814168217
0.00289879204017763
0.00344176894013615
0.00404066005266138
0.00466107988887077
0.00527718079068013
0.00592183643475049
0.00660633683941978
0.00731257798838676
0.00805916353542106
0.0089329239636554
0.0103152928387786
0.012767291325623
0.0153537808473134
0.0174253922042299
0.0191951613948289
0.0207731593332162
0.0222015036950605
0.0234692948631288
0.0245781302909118
0.0255396033342788
0.0263626732816667
0.0270564944133648
0.0276296518615961
0.028090746129507
0.0284483638713575
0.0287111170576459
0.028887512842751
0.0289858832929484
0.0290142668390388
0.0289803357916524
0.0288913203688687
0.0287539643133594
0.0285744898211203
0.0283585861021376
0.0281114073595504
0.0278375825389578
0.0275412349301888
0.0272260051386567
0.0268950827543227
0.0265512529786912
0.0261968411828053
0.0258338961962522
0.0254641807531922
0.0250891032399033
0.0247098493599545
0.0243273650693784
0.0239423570701153
0.0235553418724671
0.0231666596474187
0.0227764863670936
0.022384844015825
0.0219916090007603
0.02159651567469
0.021199159601978
0.0207989925245304
0.0203953211643062
0.0199872892221362
0.0195738744267462
0.0191538465726172
0.0187257717442127
0.0182879204855496
0.0178383024304476
0.0173744716594778
0.0168938665935484
0.0163923169112085
0.0158799380673261
0.0153502405672375
0.0147935897755373
0.0141995045878194
0.013558307002576
0.0128553473255029
0.012075441717419
0.0111972735845102
0.010176169541573
0.00886364644714338
0.00789629323511905
0.00826270163433998
0.00917912429185901
0.010472788959593
0.0119972545411056
0.0138162006274776
0.0160426140514823
0.0187764363438107
0.0217941287346023
0.0250745235793079
0.028553282090311
0.0321342499661781
0.0353241469598688
0.0384471118373586
0.0418259919824555
0.0456671857241732
0.050367220341372
0.0568692178396308
0.0667258338776535
0.0790332580667099
0.0943340896473229
0.114385605680124
0.138071841959066
0.156520116729232
0.148201602903561
0.126695055291622
0.103275379051395
0.0990254954343096
0.138173131002571
0.12336427021758
0.09732452005884
0.0549261806417388
0.0150236233531482
0.00818060481525698
0.00837091898884898
0.0065031550542771
0.00495417449525314
0.00402897641503184
0.0033961358886916
0.00301914991895403
0.00286942672763123
0.00291725932864548
0.00316583423990704
0.00360249140383949
0.0041953429445421
0.00486902707361692
0.005579915477565
0.00627674752221431
0.00690833580344833
0.00745826006314874
0.00798774147986147
0.00854250584217539
0.00914734181510314
0.00987228485855247
0.0108372627911734
0.0121401597071824
0.0140708968745075
0.0160668245602946
0.0177174867525483
0.0191576701218687
0.0204344500054993
0.0215334363632146
0.0224887412427533
0.0233379946678012
0.0240836479564769
0.0247317965838497
0.0252880190961133
0.0257576180919041
0.0261459385012884
0.0264583760339698
0.0267003958326339
0.0268774729933287
0.0269950410323438
0.0270584236207052
0.0270727791324813
0.0270430483933844
0.026973915295744
0.0268697759024195
0.0267347196347838
0.026572518106341
0.0263866218311596
0.0261801632506256
0.0259559653870854
0.0257165519405131
0.0254641709555331
0.0252007875640035
0.0249281334154493
0.0246477316509654
0.0243608775796319
0.0240686732605783
0.0237720425661459
0.0234717383739383
0.0231683588809869
0.0228623605359192
0.0225540669491258
0.0222436761353587
0.0219312660415118
0.0216167978151877
0.0213001171540091
0.0209809526643483
0.0206589121812225
0.0203334746168083
0.0200039798223083
0.0196696106944234
0.0193293740271958
0.0189820669702444
0.0186262421754123
0.0182601521554497
0.0178816951571401
0.0174892472373226
0.0170680792584519
0.0166258320177761
0.0161597824961295
0.015662062756319
0.0151238924657694
0.0145324243325959
0.0138726468668917
0.0131190590026094
0.0122452004933613
0.0111071990909132
0.0102251334246034
0.0104307983853093
0.0111613219824544
0.0123622711568851
0.0139291495370289
0.0158773655241932
0.018295276708098
0.0212491300642292
0.0246247342301052
0.028358905432572
0.0324027084969106
0.0366745186355494
0.0409307216434885
0.0453365622963691
0.0501843746953696
0.0557437871395101
0.0623833577406002
0.0708351972038096
0.0820563016437145
0.0953333894470627
0.110159080293565
0.125917884760272
0.140732103206187
0.151194687409101
0.151385014903345
0.150362116388481
0.149052854055047
0.14823414653055
0.11881663651121
0.106341019537815
0.0929732419891604
0.0719054298317186
0.0277947896993186
0.0115335408657084
0.010239145852038
0.00827139441708693
0.00651281811002498
0.00534128398708197
0.00450740692502823
0.00398561249224271
0.0037461878891793
0.00374595462107089
0.00396497552033411
0.00435426360244611
0.00484320771314031
0.00534305372438741
0.00581560067734838
0.00623637423568149
0.00659781770645002
0.00692240544624771
0.00726967758517356
0.0076807992390045
0.00818936826528329
0.00885839384044528
0.0097622723745237
0.010929258239152
0.0124204758341564
0.0138963969628163
0.0151443975000511
0.0162432808119158
0.0172101835427401
0.0180435545981156
0.018783318218179
0.0194450805910185
0.0200300267153245
0.0205420750635394
0.0209847706109792
0.0213616552528824
0.0216763841730218
0.0219327278795985
0.0221345580089527
0.0222858031316501
0.022390400211741
0.0224522432772517
0.02247513678234
0.0224627546708128
0.0224186070029992
0.0223460141250782
0.0222480887785489
0.0221277246068999
0.0219875905642723
0.0218301300060097
0.021657564892881
0.0214719011201618
0.0212749450973502
0.0210682983150504
0.020853383857565
0.0206314611708915
0.0204036288495633
0.020170834331152
0.0199338898470098
0.0196934806202499
0.0194501731457585
0.0192044252128761
0.0189565932511702
0.0187069383924393
0.0184556312095708
0.0182027552726549
0.0179483090055613
0.0176922063772617
0.0174342751199788
0.0171742540889043
0.0169117862982359
0.0166464123439826
0.0163775547785495
0.0161045074971068
0.0158264022198455
0.0155421995655858
0.015250570934993
0.0149507979657931
0.0146343242044342
0.0142983264736379
0.0139456382555956
0.0135727279184263
0.0131739544727703
0.0127415072007826
0.0122651942506009
0.0117287679484164
0.0111156102623749
0.0103390821856312
0.00968449714135376
0.00966252138643473
0.0100633708084961
0.0108757272270957
0.0120384649419554
0.0135333188594064
0.0153992961456204
0.017664556820342
0.0202823707547654
0.023198883643169
0.0263773670482396
0.0297639563681484
0.0332746263863365
0.0369730717965654
0.0410293653988582
0.0456425441130523
0.0510520727757379
0.0576266243013003
0.0656796431808608
0.0748080720340958
0.0843849272219928
0.0934843091615705
0.101197844903939
0.107457204115412
0.111319316666699
0.114317379657989
0.12120274528546
0.125400222145888
0.0956909862182173
0.0873456934825964
0.0802744022958324
0.0757931547988664
0.0424234662786088
0.0155521178140177
0.0104501900483222
0.00845453260675754
0.00686313003875245
0.00568364405984986
0.00480434493503101
0.00423248564173455
0.00394065499395992
0.0038846138946111
0.00402796154591717
0.00430765236676738
0.00465090667333172
0.0049923608075431
0.00531012562320471
0.00559589513642332
0.00585692187120156
0.0061196668668846
0.00642582909914477
0.00680688422465626
0.00729730003647435
0.00794971643971674
0.00881369985731722
0.00989239765248232
0.0111170808213222
0.0122632233736207
0.0132539537258902
0.0141352375182936
0.0149124711784534
0.0155948994720011
0.0162066113424427
0.0167550729144448
0.0172414245516892
0.0176685148012977
0.0180389516848973
0.018355432757844
0.0186207797997489
0.0188379420740302
0.0190099713328003
0.0191399861854727
0.0192311285353727
0.0192865217028014
0.0193092306278224
0.0193022278859844
0.019268365186496
0.0192103513348386
0.019130736251467
0.0190319004311749
0.0189160491802191
0.0187852106731303
0.0186412384025023
0.0184858177272506
0.0183204693760848
0.0181465558719878
0.0179652926538451
0.0177777606009079
0.0175849133641967
0.017387581211759
0.0171864842692983
0.0169822402131765
0.016775370229163
0.0165663069680147
0.0163554008339018
0.0161429252882571
0.015929081119269
0.0157139999410816
0.0154977463645871
0.015280319564601
0.0150616528182354
0.0148416130227708
0.0146199964493716
0.0143965262782183
0.0141708418454681
0.0139424952186679
0.0137109266780113
0.0134754674286912
0.0132352360436308
0.0129897851604219
0.012734554015268
0.0124656236811999
0.012184391801944
0.0118896729980351
0.0115781151960489
0.0112450583284072
0.0108838784362346
0.0104850787681857
0.0100373218946367
0.00949217428306401
0.00898683556668748
0.00884100997235629
0.00904514094046609
0.00959819631988413
0.0104618706121963
0.0116092858821856
0.0130521906495476
0.0147984839932316
0.0168237562757547
0.0190881505118247
0.0215619224336867
0.0242066838463526
0.0269921518659278
0.0299475903240449
0.0331682782033997
0.0367844501296772
0.040949790418123
0.0458573764967175
0.051592811405259
0.0579302522020153
0.0644390169940389
0.0704516986893984
0.075521484335475
0.0801613628834108
0.0850273065025575
0.0888185282020628
0.0946848174965002
0.098650632301427
0.0786257134191928
0.0731739774409797
0.0687816088745207
0.0723884321210437
0.0532598230597504
0.0211188153402494
0.0105333819368797
0.00800029945269212
0.00656492196603206
0.00547155315063526
0.00464192153418039
0.0040954130488441
0.00380594579598605
0.00373374084979352
0.00383675277302543
0.00405171172900481
0.0043137888172582
0.00457562436780027
0.00482316502148333
0.00505432799682526
0.00528072915609316
0.00552678018481479
0.00582346516502363
0.00619739537676312
0.00668144422368478
0.00731856192076267
0.00814100479592483
0.00912970354906702
0.0101670451816132
0.0111056600728415
0.0119328672198664
0.0126746761987106
0.0133327983931944
0.0139185910365323
0.0144460971766484
0.0149195341254444
0.0153400465804197
0.015709871669833
0.0160310999549439
0.0163059454490329
0.0165367448003158
0.0167259617444882
0.0168761584676651
0.0169899650669462
0.017070040140102
0.0171190346363024
0.0171395568347654
0.0171341427970761
0.0171052313183053
0.0170551445224073
0.0169860735137744
0.0169000688073814
0.016799034851804
0.016684727861903
0.0165587586554717
0.0164225962708326
0.0162775686144099
0.0161248729248895
0.0159655799579039
0.0158006449561712
0.0156309159235489
0.0154571360535764
0.0152799545644168
0.015099933717872
0.0149175539065423
0.014733220283928
0.014547268321384
0.0143599685984972
0.0141715307627429
0.0139821069162745
0.0137917939700407
0.0136006356100574
0.0134086226949896
0.0132156938227152
0.0130217329771062
0.0128265689600809
0.0126299683522241
0.0124316349741293
0.0122311929410345
0.0120281924195219
0.0118220308343306
0.0116123922100538
0.0113966899389823
0.0111718524090583
0.0109380222899663
0.0106948880677148
0.0104405405364508
0.0101722300210389
0.00988574555407247
0.00957561288126022
0.00923420786665624
0.00883596612772519
0.0084412197938959
0.00825058078750178
0.00834001658716675
0.00872712202854575
0.00938899026269729
0.0102994163895119
0.0114565247183429
0.0128572200894377
0.0144847094444996
0.0163089557211735
0.0183050641843922
0.0204436520792456
0.022714865145351
0.0251370844850443
0.0277674918445877
0.0306930475673143
0.034018254763428
0.0378537324146445
0.0422021883971647
0.0469205508190135
0.051727297996951
0.0561655818308629
0.0599811621397507
0.0636914138050095
0.0683715902095078
0.0725247646761822
0.0772550853845416
0.0801064552995238
0.0666189180001124
0.0628801785972261
0.0597822866228137
0.0663506124673738
0.0585548999380372
0.027705712745456
0.0112552603763601
0.00761068743699151
0.00618373090615705
0.00516771771033579
0.00440147477528961
0.0038973652307892
0.00362762129004528
0.00355537269911317
0.00363725942242108
0.00381367037814602
0.00402806625501021
0.00424460424032422
0.00445381931803432
0.00465702485307119
0.00486736904064787
0.00510675954246144
0.00539999269272018
0.00577057142495735
0.00624824751294655
0.0068670160400713
0.00764539347716595
0.00854854076158496
0.00944887904324084
0.0102503894608028
0.0109676427246012
0.0116146661456841
0.012192628053434
0.0127113989444776
0.0131796210091783
0.0136000413739252
0.0139737700231001
0.0143026533565977
0.0145884570647576
0.0148330840070968
0.015038556962788
0.0152070232053722
0.0153407246572165
0.0154419703264027
0.0155130999249068
0.0155564512885918
0.0155743286171916
0.0155689758250466
0.0155425538928809
0.0154971232835054
0.0154346308437661
0.0153569010348816
0.0152656308216527
0.015162387748106
0.0150486135914371
0.0149256227859519
0.0147946073934463
0.014656645019075
0.0145127012921525
0.0143636395209389
0.0142102288053828
0.0140531463645023
0.0138929865952562
0.0137302674995443
0.0135654353914042
0.0133988706744925
0.0132308928898915
0.0130617651539608
0.0128916979131672
0.012720852237554
0.0125493423007684
0.0123772375728067
0.0122045638128102
0.0120313042526196
0.0118573985856709
0.0116827434762461
0.0115071882325666
0.0113305357454413
0.0111525312268704
0.0109728687054238
0.010791134310467
0.0106071031127462
0.0104192426585786
0.0102253723882117
0.0100250880604685
0.00981838003905122
0.00960423560233065
0.00938113041614103
0.00914652148864736
0.00889744525553668
0.00862892504920786
0.00832933579156055
0.00802001642514598
0.00782406915430811
0.00784675498058153
0.00812343474916524
0.00864408912493326
0.00938664084070683
0.0103426992938936
0.0115030521763824
0.0128535967110228
0.0143706750353729
0.0160329821147884
0.01781699129341
0.0197216833216846
0.0217620159225818
0.023975364203462
0.0264223825588942
0.0291781343157372
0.0323104633841159
0.0357891298438442
0.0395123311589435
0.0432910515545851
0.0468044128055228
0.0498881700063916
0.0529711469270429
0.057126950624281
0.0612563598503876
0.0654223784159293
0.0675726101861028
0.0579093279200588
0.055194149595566
0.0528706464702123
0.0598679372634841
0.0606163027864068
0.034334106949269
0.0128126968685976
0.007485101543003
0.00590031690291805
0.00492367712697254
0.00420579823269317
0.00373663059393063
0.00348450777626081
0.003413249717287
0.00347951409084846
0.0036280624731214
0.00380937071063931
0.00399520787675649
0.0041792176647339
0.00436479566037979
0.0045654285981956
0.00480075454678902
0.0050916111843187
0.00545892389177522
0.00592866766330291
0.00652687828506619
0.00726135699803608
0.00808829321230153
0.00888619473469103
0.00959252068961025
0.0102320447579502
0.0108116845056157
0.011332484670087
0.0118024212288676
0.0122270579889932
0.012608396105665
0.0129474870474373
0.0132459090573949
0.0135052069791089
0.0137270691926888
0.0139133025574073
0.0140658362404594
0.0141866915090184
0.0142779557999458
0.0143417484252597
0.0143801902148541
0.0143953739602895
0.0143893396765114
0.0143640536195511
0.0143213919676554
0.0142631286584375
0.0141909272522852
0.0141063361703766
0.0140107878018599
0.013905600335534
0.0137919755563741
0.0136710057850927
0.0135436795166529
0.0134108837363365
0.0132734125223197
0.0131319747025438
0.0129871964933715
0.012839629304176
0.0126897556961671
0.0125379939141939
0.0123847031113879
0.0122301880436811
0.0120747032660185
0.0119184567551382
0.0117616131415795
0.0116042962900789
0.0114465916480431
0.0112885476760732
0.0111301774498108
0.0109714586347155
0.0108123347085142
0.010652712641193
0.0104924647607671
0.0103314217216887
0.0101693791463084
0.0100060583839046
0.00984130847983268
0.0096742050707012
0.00950326302947786
0.00932792039204916
0.00914829288492435
0.00896393715113535
0.00877415427750316
0.0085775893579843
0.00837293616810226
0.00815716989969731
0.00792726406933627
0.00768490022934249
0.00750193146491682
0.00748702748628448
0.0076881090958551
0.00810614769924215
0.00872446680626864
0.00953205030515964
0.0105163951985648
0.0116643487464034
0.0129564224807239
0.0143740303901448
0.015897767581077
0.0175307205040397
0.019286795771376
0.0211925642299135
0.0232922816547641
0.0256422877647701
0.0282860501598991
0.0311801116670999
0.0342457285433368
0.0373511485401363
0.0402623964732983
0.0428608930566021
0.0454854632866287
0.0490847393733232
0.0529565570170803
0.0567798802794926
0.0586071065766775
0.0512984785898167
0.0492407413961654
0.047479596161462
0.0537765265843358
0.0604396960267772
0.0404057932517229
0.0153250040817293
0.00767288142368007
0.00574509649790102
0.00476161259762925
0.00407206707976286
0.00362565971237089
0.00338448543592985
0.0033113250166333
0.00336307416841045
0.0034886327794077
0.00364417537604604
0.0038067105880658
0.00397207616283432
0.00414493200724078
0.00433851413263506
0.00457049866358146
0.0048589072077294
0.00522227285324708
0.00568267067148409
0.00625931530672065
0.00695201625732093
0.0077131626746294
0.0084330963387372
0.00907079735986093
0.00965336867925006
0.0101834705530713
0.0106619856071219
0.0110952314377851
0.0114869277880999
0.0118386550344579
0.01215139756084
0.0124265406189758
0.0126654713624516
0.0128697244025437
0.0130409530212288
0.013180931657402
0.0132915255593706
0.0133746655879971
0.0134323152699944
0.0134664417683584
0.0134789877777893
0.0134718480307004
0.0134468494619733
0.013405735768315
0.0133501559410142
0.0132816566284252
0.0132016778180362
0.0131115531108826
0.0130125079228867
0.0129056608687599
0.0127920292427509
0.0126725339433282
0.0125480019888982
0.0124191743087671
0.0122867129265927
0.012151204017906
0.012013164846909
0.0118730493758449
0.0117312527217438
0.011588116025011
0.01144393090358
0.0112989434874943
0.0111533579623507
0.0110073397701654
0.0108610182789698
0.0107144892556506
0.0105678166347835
0.0104210344347114
0.0102741474808106
0.0101271331544199
0.00997994058904594
0.00983249321389763
0.00968468490423867
0.00953638668826966
0.00938742080477101
0.00923769984234424
0.00908667399188954
0.00893336375959886
0.00877725374549169
0.00861851966910941
0.00845709902548645
0.00829286989672604
0.00812534313391937
0.00795435155582991
0.00777835358821328
0.00759960289696533
0.00741019799949186
0.00724803230171636
0.00721383363958523
0.00736251810140418
0.00770398824662827
0.00822722886975742
0.00892082867141924
0.00977076142315027
0.0107642513880398
0.0118846104670373
0.0131153503156423
0.0144401267960739
0.0158639687629928
0.0174004401086384
0.0190699417495392
0.0209061870003835
0.0229529931070351
0.0252389163711559
0.0277160806121362
0.0303202860729633
0.0329562355135216
0.0354464345663694
0.0376958663466914
0.0399673081976453
0.0430622555326106
0.0465790393715272
0.0501099314594891
0.0518018461794344
0.0460674914054007
0.0444678285899797
0.0431625396085678
0.0483604802189072
0.0587594770428392
0.0453504879984158
0.0188203172591786
0.00821518321167692
0.00572049502423534
0.0046757566948997
0.00399423339573933
0.00355868570401083
0.0033215037535057
0.00324301421694873
0.00328010470624914
0.0033852638145921
0.00351924864408213
0.00366278113545453
0.00381325245953917
0.00397603909067535
0.00416382621047559
0.00439259467846478
0.00467817801231259
0.00503682849854562
0.00548688757654456
0.00604189811362377
0.00669598895187311
0.00740119066582966
0.00806094760002971
0.00864784441338878
0.00918768736555212
0.00968055620152816
0.0101270898707506
0.0105322665430222
0.0108986527790171
0.0112275657233731
0.0115199224082546
0.0117769645468181
0.011999963407474
0.0121903412694553
0.0123496408119744
0.0124795258434047
0.012581750759666
0.0126581354414401
0.012710533069384
0.0127408017921947
0.0127507775204968
0.0127422512055133
0.0127169497750496
0.0126765212927429
0.0126225240068985
0.0125564191078452
0.0124795673292799
0.0123932285008427
0.0122985587645113
0.0121966143578637
0.0120883556083987
0.0119746516541788
0.0118562832989418
0.0117339502030222
0.011608277666168
0.0114798201071553
0.0113490674137163
0.0112164503059395
0.0110823447756878
0.0109470767335544
0.0108109263071946
0.0106741317745577
0.0105368930678624
0.0103993749694541
0.0102617098665142
0.0101240003339773
0.00998632117600789
0.00984872159607343
0.0097112265050279
0.00957383868874891
0.0094365391736729
0.00929929031780554
0.00916203438930644
0.00902470040260755
0.00888718813808897
0.00874946567379689
0.00861122701596001
0.00847185693200506
0.00833097346053635
0.00818879787507106
0.00804553373659915
0.00790147320155319
0.00775676747230207
0.00761205222261898
0.0074669353381522
0.00732683394186383
0.00717961535447439
0.00704085634078407
0.00699901594255189
0.00711144907672079
0.0073948454093672
0.00784356141559295
0.00844708138469396
0.0091910133277432
0.0100628456744238
0.0110478448163881
0.0121311739167799
0.0132988502128987
0.0145567794537709
0.0159183357747059
0.0174002527601613
0.0190292810082694
0.0208405300076277
0.0228529772787811
0.0250186256128221
0.0272835448231321
0.0295762488181787
0.0317563800374066
0.0337401644122537
0.0357285109166739
0.0383888682062492
0.0415269318022336
0.0447693446795112
0.0463951933630908
0.0417875958215347
0.0405287644019521
0.0396065759405585
0.043666907125187
0.0561089944261797
0.0489043975482697
0.0231434316301952
0.00917573743778599
0.00583355027889204
0.00465961337050961
0.00396473001936952
0.00352884158187918
0.0032891012812891
0.00320196333467182
0.00322380694224098
0.00331003413287317
0.00342505793455458
0.00355227183819823
0.00369014384717498
0.00384438731610311
0.00402698290491024
0.00425242582003915
0.00453473555833094
0.00488800052911894
0.00532714323399705
0.00586111107009018
0.00648020950411531
0.00713821302743209
0.0077510598135713
0.00829970105551688
0.00880704653835494
0.00927158781664446
0.0096936648205659
0.0100771913134249
0.0104239827007535
0.0107351737456018
0.0110116175691641
0.0112544466243586
0.0114648458729155
0.0116441554342336
0.0117938389410272
0.0119154821958359
0.0120107622434678
0.0120814218768602
0.0121292377364016
0.0121559922074111
0.0121634466906038
0.0121533193052711
0.0121272663170928
0.0120868676912422
0.0120336165222802
0.0119689121849101
0.0118940581486131
0.0118102587622052
0.0117186191979737
0.0116201487632819
0.0115157645356927
0.0114062959763753
0.0112924881720356
0.0111750086031799
0.0110544536237785
0.0109313523349572
0.0108061725537817
0.0106793260186916
0.0105511728505187
0.0104220260733617
0.0102921558223628
0.0101617932227932
0.010031133886015
0.00990034112244792
0.00976954878112493
0.00963886393647962
0.00950836915765245
0.00937812489479094
0.00924817125577115
0.00911853052383409
0.00898920844208045
0.00886019777321727
0.00873147875757646
0.00860302616533713
0.00847480072886908
0.00834681912515048
0.0082189417200835
0.00809081944875867
0.00796222491361598
0.00783343229870219
0.00770483762322257
0.0075770356312238
0.00745065503593817
0.00732690481784178
0.00720629171513088
0.00709602595023586
0.00698260201795678
0.00686721798882829
0.00682514777250201
0.00691288317777632
0.00715185722202131
0.00754119554009589
0.00807198991946617
0.00873025336964507
0.00950380674091107
0.0103793481375622
0.0113433713658702
0.0123837692495862
0.0135067767425905
0.0147255564523805
0.0160545841002993
0.0175159094947435
0.0191384023429749
0.0209347078395289
0.0228589574386996
0.0248651682727687
0.0268976046592147
0.0288402593531199
0.0306131578567239
0.0323671899232327
0.0346575901681341
0.0374293833470524
0.040383363333442
0.0419575569761252
0.0381949983093905
0.0372013308314309
0.0365995701456397
0.0396544894151502
0.0528453445511217
0.0510436889200641
0.027939807837445
0.0106456731715176
0.00610409793050306
0.00471174824827208
0.00397876901361745
0.00353135689797861
0.0032827134573132
0.00318366426894924
0.00318938436388209
0.00325744282890675
0.00335511742202227
0.00346771829911475
0.00359441911871539
0.00374099777524698
0.00391865216011825
0.00414055217752899
0.00441914758234765
0.00476650298793831
0.0051945032015873
0.00570845931096874
0.00629628596935649
0.00691467328074059
0.00749073845121911
0.00801032762933987
0.00849284125758829
0.00893576889906795
0.00933912372978384
0.00970596653862079
0.0100376017396118
0.0103350248511798
0.0105990297232095
0.0108306642808158
0.0110310492598459
0.0112014657845513
0.0113433228714075
0.0114581537370863
0.0115475842170857
0.0116133064849922
0.0116570470321352
0.0116805384279332
0.0116854927332628
0.0116735793608653
0.0116464067825637
0.0116055083195166
0.0115523318498961
0.011488233726239
0.0114144763429962
0.0113322238139653
0.011242544219099
0.0111464120512908
0.0110447119034275
0.0109382430664179
0.0108277231700748
0.010713794675467
0.0105970311505586
0.0104779415060093
0.0103569757360488
0.0102345300406164
0.0101109513382643
0.00998654173159819
0.00986156267636162
0.00973623884464469
0.00961076163863171
0.00948529243955248
0.00935996553405049
0.00923489090275786
0.0091101566861656
0.00898583176191012
0.00886196790567669
0.00873860261122502
0.00861576110952945
0.00849346034253953
0.00837171089497427
0.00825052433347661
0.0081299101403168
0.00800992748634004
0.00789055492126198
0.00777164061539789
0.00765310603080126
0.00753528648000593
0.00741872263307613
0.00730423313568618
0.00719280354259369
0.00708605317619642
0.00698519137284471
0.0068983293691514
0.00681209438962218
0.00671874661723376
0.0066810575108837
0.00675250067230396
0.00695741257803755
0.00729893001623902
0.00777008633573297
0.0083578052239909
0.00905036887718405
0.00983558514539991
0.0107010474793044
0.0116361740944067
0.0126472438040894
0.0137471460005313
0.0149489221763971
0.0162713926087032
0.017738852536893
0.0193597333294699
0.0210915389163379
0.0228948344708514
0.0247242030304523
0.0264792106399674
0.0280789208806463
0.0296337656549761
0.0316087983052681
0.0340421203275597
0.0367137713118172
0.0382298691877106
0.0351203435441711
0.034338642858799
0.0339987137295687
0.0362489756753898
0.0492222846350914
0.0518888609181696
0.032719636901333
0.0127418628444642
0.00656810816183756
0.00483706645039168
0.00403484513285463
0.00356375596019943
0.00329967337066853
0.00318530474216237
0.00317371422217114
0.00322382625112334
0.00330507382575456
0.00340410075470042
0.00352048368707005
0.00365986118155808
0.00383260859790418
0.00405069304411757
0.00432517030338349
0.00466624223984143
0.00508315526490935
0.00557840923588261
0.00613859733193464
0.0067238845546698
0.00727107334832505
0.00776860147741727
0.0082322276450228
0.00865878534408733
0.00904794595037432
0.00940207380007464
0.0097221077022102
0.0100089272481562
0.0102632715739053
0.0104861224987269
0.0106785537759085
0.0108418061469903
0.0109772538224005
0.011086398164852
0.0111708351377693
0.0112322278928769
0.0112722742760194
0.0112926781486537
0.0112951226707842
0.0112812481058036
0.0112526336430653
0.0112107833026438
0.0111571158952431
0.0110929601023014
0.0110195496540461
0.0109380213398826
0.0108494170836642
0.0107546863429401
0.010654689914426
0.0105502045972857
0.0104419272332813
0.0103304810454839
0.0102164218027177
0.0101002423915255
0.00998237844576427
0.00986321344927023
0.0097430833269284
0.00962228090902623
0.00950106010402097
0.00937963977787315
0.00925820730750571
0.00913692188214244
0.00901591751985896
0.00889530595812055
0.00877517929411565
0.0086556127352898
0.00853666708183854
0.00841839181381743
0.00830082770680568
0.00818401117698975
0.00806797738231427
0.00795276789375652
0.00783843170963433
0.0077250650366082
0.00761273331987471