/*--------------------------------*- C++ -*----------------------------------*\
  =========                 |
  \\      /  F ield         | OpenFOAM: The Open Source CFD Toolbox
   \\    /   O peration     | Website:  https://openfoam.org
    \\  /    A nd           | Version:  7
     \\/     M anipulation  |
\*---------------------------------------------------------------------------*/
FoamFile
{
    version     2.0;
    format      ascii;
    class       volScalarField;
    location    "5000";
    object      p;
}
// * * * * * * * * * * * * * * * * * * * * * * * * * * * * * * * * * * * * * //

dimensions      [0 2 -2 0 0 0 0];

internalField   nonuniform List<scalar> 
15600
(
0.887230263391313
0.893866621278162
0.882150243301633
0.923163253717175
0.962821292591054
0.986814966419976
0.998053134038565
1.0067877923561
1.01173498473399
1.01597893667384
1.01895248826106
1.02136173514309
1.02328647486834
1.02483470007687
1.02611913349323
1.02730189102282
1.02864109880816
1.03016589114793
1.03192882059143
1.03395848386547
1.03619786078346
1.03839659057218
1.04049256902127
1.0425284611828
1.04438948178314
1.04605110554525
1.04757875564893
1.04725454265807
1.04805959353418
1.05115242634852
1.05531811953308
1.06036267220713
1.06600871504676
1.07212262688037
1.07857735224629
1.08528261678254
1.09215781392852
1.09913532821891
1.10615564796451
1.11316734882343
1.12012604075147
1.12699398193394
1.13373967073591
1.14033736804069
1.14676666776568
1.15301196841606
1.15906197817535
1.16490918269326
1.17054934735149
1.17598102805857
1.1812051246491
1.18622446909496
1.19104345529883
1.19566771763098
1.20010384010957
1.20435912771837
1.2084413801914
1.21235873813901
1.21611953918891
1.2197322398318
1.22320531643598
1.22654713917089
1.22976598839401
1.23287000940863
1.23586718220398
1.23876531669236
1.24157205251418
1.24429486683505
1.24694109202511
1.24951793576367
1.2520325147181
1.25449188309749
1.25690308727242
1.25927319568692
1.26160939106196
1.26391898236272
1.26620958023523
1.26848903176186
1.27076580434874
1.27304865238229
1.27534761074165
1.27767256134419
1.28003611494896
1.28245080356021
1.28493451469244
1.28750100923037
1.29017770727953
1.29297767378423
1.29594934270387
1.29909325198722
1.30251116053971
1.30612328810346
1.31022371926248
1.3149841093924
1.31875657874154
1.32262608293031
1.32615408540843
1.32941943475066
1.3322444166788
1.33444092357045
1.3355013361661
1.33533496647932
1.33360932749082
1.33022053201645
1.32490499635114
1.31848896842968
1.31075197143933
1.3010997326893
1.28892540127697
1.27281393118574
1.25007887036543
1.21433094795754
1.16356965694376
1.09548581458051
1.00116903345094
0.886243582593115
0.768577813766548
0.76005779111528
0.796132527074768
0.863759238653428
0.887255467598717
0.894011615267933
0.882398917893016
0.92273932286499
0.962093997167347
0.986275124066288
0.997693080780143
1.00652379493361
1.01155545211726
1.0158388367342
1.0188546772604
1.02129020726486
1.02323731455007
1.02480313935096
1.02609877074694
1.02728180993401
1.02861182178675
1.03012376797514
1.03187061509708
1.03388416032885
1.0361148045902
1.0383146137223
1.04041408987594
1.04245478897128
1.04432253224278
1.04599337501271
1.04753214403464
1.04723621567792
1.04808884845845
1.05119380692331
1.05536145199328
1.06040699816031
1.06605208619631
1.07216414502575
1.07861625540364
1.08531834162136
1.09218991661251
1.09916354575576
1.10617982966474
1.11318744572099
1.12014208732636
1.12700608238466
1.13374798498513
1.1403420989676
1.14676804955313
1.15301025612004
1.15905743875175
1.16490208738471
1.17053996550196
1.17596962219834
1.18119194675656
1.18620975788471
1.19102743438248
1.19565059446084
1.20008580542713
1.20434035317329
1.20842201379466
1.21233900633297
1.2160996562915
1.21971229556798
1.22318536626628
1.22652724199652
1.22974620726781
1.23285039747239
1.23584778410978
1.23874616924774
1.24155318535215
1.2442763030278
1.24692284864576
1.24950002437818
1.25201494184069
1.25447465055173
1.25688619256172
1.2592566321997
1.26159314842143
1.26390304639024
1.26619393346765
1.26847365288047
1.27075066952063
1.27303373290165
1.2753328813769
1.2776579782181
1.28002162866708
1.28243636568077
1.28492010349471
1.28748657541015
1.29016326941883
1.29296317379685
1.29593495181743
1.29907890947814
1.30249780773024
1.30610956773746
1.31021160755764
1.31499335237584
1.31878170436357
1.32266827363331
1.32620400582009
1.32946783999798
1.33227586696014
1.33443164714155
1.33543135553033
1.33519103038322
1.33338116781374
1.32990395307598
1.3245203608787
1.31804897007164
1.31023334891407
1.30047211144236
1.28813858546749
1.27177112337349
1.24859838937611
1.21231682063618
1.1610807039202
1.09257751596338
0.998331157622194
0.884629202284517
0.769602013706071
0.761549281080178
0.79672756497234
0.863862324251015
0.887358586239239
0.894406071113484
0.883198555358895
0.922777085675155
0.96150045236155
0.985812433962096
0.997370458793773
1.00628398966626
1.01138924670991
1.01570700974332
1.01876102999196
1.02122174545084
1.02319058339412
1.02477397419545
1.02608165988147
1.02726628137597
1.02858587860944
1.03008060940666
1.03180364038559
1.03378886398587
1.0359932536308
1.03817627862228
1.04026345996637
1.04229433772162
1.04415722970044
1.04582554543003
1.04736410816991
1.04715230026432
1.04810766530895
1.05122471350332
1.05538882680872
1.0604297004824
1.06606776935946
1.07217252778694
1.07861702988591
1.08531149393298
1.09217556223174
1.09914201251877
1.10615154238979
1.11315291516474
1.12010188079366
1.12696080427833
1.13369825720329
1.1402885445482
1.14671127905102
1.15295085658623
1.15899596552271
1.16483905814302
1.17047585658852
1.175904866676
1.1811269339684
1.18614483418259
1.19096290471783
1.19558672474813
1.20002282460716
1.20427846366764
1.20836144310311
1.21227981194004
1.21604182094137
1.21965592548235
1.22313056472444
1.22647408886205
1.22969476041915
1.23280070101789
1.2357998709005
1.23870006253177
1.241508900391
1.24423384856471
1.24688222826473
1.24946123771845
1.25197798578616
1.25443952024435
1.25685288255334
1.25922513727287
1.26156346494648
1.26387517281683
1.26616787244411
1.26844941078885
1.27072826098674
1.2730131773432
1.27531420406013
1.27764124128434
1.28000692152859
1.28242373740467
1.28490969112896
1.28747849416002
1.29015782191199
1.29296050951722
1.29593575073708
1.29908315414406
1.30250705457763
1.30612273333996
1.31021573968815
1.31499994706777
1.31878395713269
1.32267364154952
1.32620269901535
1.32945258374179
1.33223110076205
1.33433730716124
1.33527391757723
1.33496346411481
1.33307814662809
1.32952798212634
1.32409207701826
1.31757027603415
1.30967452425421
1.29980252339456
1.28730840044406
1.27068933560147
1.2471297801774
1.21045437520568
1.15896620360248
1.09043056868318
0.996954732486061
0.885554241735776
0.773878298532134
0.765413427606474
0.798354697589925
0.86417075660349
0.887583689351295
0.89509704981152
0.884668090620943
0.923492397687881
0.96108966210389
0.985412932640255
0.997069008729372
1.00605467485351
1.01122825018981
1.01557618875015
1.01866636707681
1.02115273311926
1.0231444601831
1.02474692626055
1.02606849789373
1.02725586232242
1.0285618628613
1.0300322714336
1.03172080462195
1.03366320211171
1.0358230426229
1.03797305185345
1.04003554589483
1.0420466072847
1.04389894341241
1.04556175598634
1.04710086834091
1.04703344959414
1.04812861949169
1.0512513243405
1.05540286675393
1.06042956989027
1.06605137190439
1.07214036249971
1.07856963728868
1.08524977902973
1.09210044632226
1.09905460195191
1.10605301380203
1.11304450681365
1.11998485431055
1.12683642026509
1.13356775001738
1.14015310190019
1.14657202579548
1.15280884245686
1.15885215712479
1.16469433425754
1.17033100672452
1.17576059202075
1.1809838503228
1.18600347634577
1.19082373186494
1.1954501264826
1.19988912588434
1.20414794340787
1.20823424061739
1.21215606787002
1.21592173203244
1.21953960696404
1.22301809898451
1.22636553240065
1.22959014794769
1.23270005111858
1.23570318976883
1.2386073469777
1.24142014064152
1.24414903081946
1.24680133709654
1.24938425827403
1.25190490600525
1.25437033286673
1.25678758745103
1.25916374336936
1.26150599315403
1.2638216577809
1.26611836711121
1.26840398720652
1.27068701915358
1.27297624279613
1.27528173453562
1.27761351383114
1.27998426260322
1.28240640052868
1.28489811938956
1.28747315945769
1.29015954904964
1.29296995923571
1.29595445053872
1.29911159110821
1.30254752324688
1.30617548988836
1.3102449269534
1.31499766703506
1.31874892680881
1.32261992134884
1.3261207417007
1.3293377985307
1.33206737479815
1.33410735509513
1.33497017797031
1.33458408299603
1.332621945332
1.32900332162312
1.32352242889281
1.31695013821634
1.30896732198949
1.29897367014104
1.28630299363762
1.26941369144698
1.2454730602829
1.20847061189287
1.15684955350447
1.08849289326971
0.996158449729579
0.887679081504175
0.779982106097323
0.77113300601322
0.801206276884731
0.864808524845969
0.88792980773913
0.896012549697772
0.886538497492588
0.924674726586713
0.960954048379451
0.985092118974769
0.996781382166323
1.00581761438227
1.01106181187926
1.01544004500283
1.01856713613136
1.02108164208623
1.02309937018908
1.02472433310286
1.02606302000686
1.02725486579387
1.02854464184148
1.02998497760202
1.03163101596511
1.03352109200675
1.03562614556906
1.0377354231626
1.0397683581074
1.04175680968812
1.04359875952154
1.04525989251456
1.04680584997335
1.04690515785181
1.04814361737157
1.05126866384606
1.05540468819107
1.06041177885811
1.06601195764908
1.07208011073248
1.0784894258067
1.08515092459533
1.09198435350775
1.09892283374424
1.10590719424059
1.11288630669302
1.11981594994066
1.1266584653938
1.13338234820921
1.13996178377356
1.14637623155445
1.15260990880958
1.15865130928137
1.16449268171002
1.1701295428211
1.17556019626509
1.18078529296091
1.1858074245732
1.19063075712323
1.19526071199005
1.19970368288878
1.20396678362978
1.20805764282666
1.21198430181404
1.21575498242685
1.2193779969132
1.22286171415317
1.22621443075088
1.22944436481498
1.2325596031293
1.23556807960599
1.23847756724982
1.24129567750238
1.24402986728812
1.24668745620673
1.24927564600123
1.25180155424671
1.25427224219917
1.25669477033455
1.25907622690398
1.26142382315495
1.26374490148659
1.26604711944659
1.26833837264536
1.27062720329212
1.27292243183263
1.27523418763848
1.27757261155259
1.27995051713912
1.28238025434872
1.28488019586138
1.28746414644389
1.29016057878462
1.29298197446488
1.29597937378156
1.29915014767909
1.30260172552886
1.30624605657073
1.31028563053748
1.31498837395848
1.31868822865813
1.32252262969674
1.32597643617926
1.32914301859559
1.33180479926012
1.33376014093711
1.33453279655424
1.33405732161203
1.33200712480498
1.32831272599349
1.32278235292419
1.31615286834565
1.30807153116993
1.29793930625445
1.28506729311031
1.26787406357739
1.24352080399289
1.20618389069912
1.15444738998862
1.08632998338453
0.995261498355652
0.889912797294564
0.786418664107059
0.777434249614802
0.804657790215007
0.865684573997857
0.888397031044229
0.897090999948248
0.888588102281976
0.926052013521434
0.961125516813041
0.984885947753487
0.9965545227053
1.00557446283944
1.01088876246894
1.01530015882747
1.01846617912545
1.02101192950131
1.02305918913672
1.02471018904537
1.02606873680506
1.02726616505372
1.0285377876151
1.02994417354763
1.03154264055184
1.03337492318348
1.03541959464143
1.03748363682724
1.03948388815688
1.04144807109475
1.04327935549304
1.04494085718803
1.04649642697547
1.04676603017818
1.04814347165669
1.05127322980177
1.0553961689127
1.06038211142506
1.06595868272144
1.07200359996437
1.07839052511613
1.08503105662712
1.09184511849069
1.09876599711725
1.10573460064217
1.11269984830801
1.11961752327959
1.12644993749682
1.13316552698513
1.13973839267121
1.1461478908402
1.15237812141419
1.1584174523684
1.16425800231974
1.1698951576786
1.17532709452367
1.18055434145977
1.18557937484396
1.19040625343903
1.19504030140932
1.19948782191977
1.20375585960167
1.20785198837902
1.21178417204978
1.21556056555652
1.21918943826623
1.22267911935953
1.2260378738759
1.22927389389062
1.2323952447916
1.23540984445489
1.2383254542048
1.24114967789778
1.24388996862717
1.24655364572582
1.2491479139888
1.25167989740934
1.25415666678472
1.25658529571982
1.25897288869842
1.2613266776905
1.2636540288373
1.26596263018702
1.26826040994697
1.27055595501498
1.27285813073115
1.27517712624767
1.277523183786
1.27990927830881
1.28234771576554
1.28485701516041
1.28745100329709
1.29015858023239
1.2929919553893
1.29600299816367
1.29918771214995
1.3026535990725
1.30631226583523
1.31032114491973
1.31497131893272
1.31861306870327
1.32240037115347
1.32579437833819
1.32889750391404
1.33147775148804
1.33333491586618
1.33400420155902
1.33342727335398
1.33127850083493
1.32750000863196
1.32191239899724
1.31521650609671
1.30702471133462
1.2967379595917
1.28364249068587
1.26611728661475
1.24132523377672
1.20364255843967
1.15179884718736
1.08396578951946
0.994255069420247
0.892136220951126
0.792902850652279
0.783919705231591
0.80841130529311
0.866764430521069
0.888988764188362
0.898302707785786
0.890751692489707
0.927549806177662
0.961533717232657
0.984773886593342
0.996444136403093
1.00534573167623
1.01071399313671
1.01516074617672
1.01836763244788
1.02094691029207
1.02302625431295
1.0247055619274
1.02608537728055
1.02728873772999
1.02854097590451
1.02991105756189
1.03145876972738
1.03322977703083
1.03521005831937
1.0372249121778
1.0391891815467
1.04112687219917
1.04294600300329
1.04460847815024
1.0461743937986
1.04661478318248
1.04812723019286
1.05126474091654
1.05537778957265
1.06034222178493
1.06589435643621
1.07191457682732
1.07827755670639
1.08489555362626
1.09168876833364
1.09859067075901
1.10554227695144
1.11249256048494
1.11939731473912
1.12621882137619
1.13292545462851
1.13949122550357
1.14589538027864
1.15212189340135
1.15815899821832
1.16399867387856
1.16963616697383
1.17506951653583
1.18029911963127
1.18532732844534
1.19015808602286
1.19479661392679
1.19924911814909
1.20352256137435
1.20762444160357
1.21156264571748
1.21534527280318
1.21898054533839
1.2224767492345
1.2258421145363
1.22908480426345
1.23221286016001
1.23523418221206
1.23815651857435
1.24098746437932
1.2437344680602
1.24640484813915
1.24900581217821
1.2515444905396
1.25402796372165
1.25646331880581
1.25885767700511
1.26121829163674
1.26355255326002
1.26586818112648
1.26817313664057
1.27047605171131
1.2727858367496
1.27511274244565
1.27746709514776
1.27986202568296
1.28230981990899
1.28482912031827
1.28743371656252
1.29015288135149
1.29299846056715
1.29602293672346
1.29922080878992
1.30269850679352
1.30636806091434
1.31034562571148
1.31494399155726
1.31852561275651
1.32225935163868
1.32558430704629
1.32861379791942
1.33110180263502
1.3328505022598
1.33340623331775
1.33271821550315
1.3304623725822
1.32659264719161
1.32093997388217
1.3141679768275
1.30585433889681
1.2953989370218
1.28206144160277
1.26418301347909
1.23893635014392
1.20090691672191
1.14897355305116
1.0814782369155
0.993220939683322
0.894408008805116
0.799430100002113
0.790514516050764
0.812388353480741
0.868040328442208
0.889700560965603
0.899626367343777
0.892995792687654
0.929141041038442
0.962069177753338
0.984727009407705
0.996453646222871
1.00516071300846
1.01054412711482
1.01502479368038
1.01827377552567
1.0208876902054
1.02300056739414
1.02470939801645
1.02611116678542
1.02732068272925
1.02855294401252
1.02988532748985
1.03138010667442
1.03308729929306
1.03499991499379
1.03696198653049
1.0388870646862
1.04079596203185
1.04260119315484
1.04426530612561
1.04584230555329
1.04645301210521
1.04809602153778
1.0512439757147
1.05535024291586
1.0602932366637
1.06582060556142
1.07181511939565
1.07815303294081
1.08474729620035
1.09151849937895
1.09840031519863
1.10533390050709
1.11226829191157
1.11915930228478
1.12596918528477
1.13266625424658
1.13922442839578
1.14562284086338
1.15184533610451
1.1578800074672
1.16371868857898
1.16935647975123
1.17479127625212
1.18002333685378
1.18505488276256
1.18988973609763
1.19453300834118
1.19899080380992
1.20326999321662
1.20737799083184
1.2113226110006
1.2151118925421
1.21875400521799
1.22225718825593
1.22562963387318
1.22887947353321
1.2320147232646
1.23504326339629
1.23797282745058
1.24081100066177
1.24356522588142
1.24624282012783
1.24885099323904
1.25139688162871
1.25388757532431
1.25633017482075
1.25873181806819
1.26109977975214
1.26344147482387
1.26576465355065
1.26807731011904
1.27038812046211
1.27270603849075
1.27504137585725
1.27740452783313
1.27980876557627
1.28226636542452
1.28479607814355
1.28741160164626
1.29014251380213
1.29300020842984
1.29603756017703
1.29924746492886
1.30273438114803
1.30641123458851
1.31035642224631
1.31490380033834
1.31842461918134
1.32210025239012
1.32534881233267
1.32829591589779
1.33068231147978
1.33231361572488
1.33274689057062
1.33193914355711
1.32956846968492
1.32560063982294
1.31987475873168
1.31301637562418
1.30456930058208
1.29393143469169
1.28033453251827
1.26208457574547
1.23637251489737
1.19800106561825
1.14600125755792
1.0789016739295
0.992194115626733
0.896748161401707
0.805985653309722
0.797162961751507
0.816526320715241
0.869485502252708
0.89052689461449
0.901045041287875
0.89529623084337
0.930771295819995
0.962673072834501
0.984748665761113
0.99652949291347
1.00504891857184
1.01038670727457
1.01489364911482
1.01818509490013
1.02083392499778
1.02298111025597
1.0247201879535
1.02614442067533
1.02736048866464
1.02857271933276
1.02986670111797
1.03130706969031
1.03294858564836
1.03479088267502
1.03669700852014
1.0385799261147
1.04045787816767
1.04224752625906
1.04391421950023
1.04550328302694
1.04628258559275
1.04805088814583
1.05121178326415
1.05531435643013
1.06023633605477
1.06573902184819
1.07170720805041
1.07801930260015
1.08458894906976
1.09133725172109
1.09819810336305
1.10511283722552
1.11203056232669
1.11890712256625
1.12570474800256
1.13239169470359
1.13894179115503
1.14533405731261
1.15155220627076
1.15758418912228
1.16342169091528
1.16905966203462
1.17449584986096
1.17973037043806
1.18476530937142
1.18960436528686
1.19425253319021
1.19871580971279
1.20300096999514
1.20711534171811
1.21106666342057
1.21486290879018
1.21851219144263
1.22202270100759
1.22540258928245
1.2286599538194
1.23180278288899
1.23483893535329
1.23777612853727
1.240621936445
1.24338379521732
1.24606901941932
1.2486848203712
1.25123833986657
1.25373667688553
1.25618694480365
1.25859629778505
1.26097203127697
1.26332158389143
1.26565273585698
1.26797351276213
1.27029263234712
1.27261908894805
1.27496325224262
1.27733557169027
1.27974943918803
1.28221712184846
1.28475746220151
1.28738401570338
1.29012658804675
1.29299603338658
1.29604539272105
1.29926588188231
1.30275928234225
1.30643962113744
1.310351181016
1.31484855801043
1.31830852211026
1.32192274043881
1.32508898972911
1.32794604728446
1.33022243814414
1.33172829831459
1.33203099260386
1.33109545072338
1.32860253723665
1.32452968845249
1.31872197464296
1.31176629053859
1.30317372886358
1.29233937220035
1.27846607117113
1.25982789749769
1.23364269957906
1.1949376762226
1.14289885535221
1.07625678913304
0.99119544119663
0.899163705499274
0.812553687158233
0.803828160047918
0.820783129630627
0.871077059801088
0.891464366316219
0.902546066904871
0.89764165248408
0.932385815525806
0.963331068054961
0.984862011911523
0.996610860332325
1.00503361831577
1.01025250939943
1.01476866886005
1.01810166591999
1.02078508938931
1.02296694110538
1.02473675961413
1.02618396474705
1.02740718339259
1.02859975053494
1.0298551494755
1.03124015913225
1.03281465321448
1.03458447320285
1.03643183939973
1.03826981902394
1.04011481282926
1.04188728232283
1.04355765887854
1.04515985679905
1.04610503426903
1.04799282463639
1.05116900043989
1.05527090610274
1.06017258435749
1.06565101967091
1.07159259382546
1.07787843795191
1.08442286421226
1.09114762399906
1.09798684419312
1.10488207194929
1.11178249819499
1.11864401107398
1.12542882308718
1.13210513891753
1.13864669981084
1.14503241520725
1.15124586823585
1.15727486823953
1.16311095131068
1.16874891680121
1.17418636243356
1.17942325911656
1.18446155533373
1.18930482334466
1.19395793689737
1.19842678223872
1.20271803484922
1.20683893366417
1.21079713769164
1.21460055241001
1.21825723261703
1.22177531575283
1.22516291075877
1.22842807899415
1.23157877894922
1.23462284616106
1.23756798008904
1.24042174201917
1.24319156005065
1.24588474509937
1.24850850888446
1.25106999757146
1.25357631813411
1.25603459585367
1.25845200008748
1.26083584585082
1.26319359402946
1.26553305295096
1.26786227733169
1.27019002334881
1.27252532134504
1.27487859382028
1.27726032996875
1.27968402007287
1.28216191404125
1.28471292605874
1.28735042176287
1.2901043489755
1.29298493652788
1.29604516454891
1.29927450512272
1.30277153167792
1.3064513589334
1.31032787464082
1.31477628707502
1.31817561249693
1.32172593627797
1.32480511386802
1.32756543026894
1.32972430250348
1.3310974525678
1.33126214234147
1.33019129327278
1.32756909202377
1.3233843007399
1.31748573773218
1.31042131909986
1.30167081691499
1.29062572092157
1.27645937784216
1.25741778801016
1.23075455968983
1.19172806820402
1.13968218534922
1.07356390245498
0.990246381741023
0.901664867584201
0.819127366760777
0.810491023797556
0.825137789246925
0.872802530485619
0.892511827862141
0.904120319348742
0.900027427622685
0.933944461851829
0.964030073396527
0.985074310140814
0.996679328018981
1.00512057638247
1.01015692707178
1.0146524113116
1.01802383692566
1.02074093430282
1.02295745336726
1.02475832260793
1.02622901303479
1.02746013902389
1.02863372723589
1.02985076309227
1.03117987548775
1.03268640425675
1.03438198372637
1.03616806455129
1.03795849421612
1.03976864943655
1.04152244508159
1.04319769203749
1.04481410043586
1.0459217162675
1.04792287695634
1.05111649501749
1.0552206310744
1.06010294632034
1.06555785176828
1.07147281864271
1.07773226025381
1.08425110946073
1.09095190335096
1.09776901262406
1.10464423715395
1.11152685902008
1.11837282509813
1.12514433769191
1.13180955790664
1.13834214540519
1.1447209041669
1.15092929123913
1.15695497722292
1.16278935132314
1.16842706307964
1.17386556091907
1.17910467024843
1.18414620382876
1.1889936040444
1.19365162019713
1.19812602724354
1.20242339833035
1.20655088134111
1.21051605321774
1.21432674882627
1.21799096170576
1.22151677477558
1.2249122518515
1.22818541591179
1.23134419367318
1.23439639545494
1.23734970109662
1.24021165754364
1.24298968334547
1.2456910843542
1.24832307134704
1.25089279355286
1.25340736463824
1.25587392041896
1.25829964397986
1.26069186818385
1.2630580742178
1.2654060959205
1.26774401406519
1.27008061885279
1.27242497105059
1.27478753872617
1.27717883645826
1.2796124286882
1.28210053360695
1.2846621122244
1.28731029625781
1.29007508395842
1.29296599674651
1.29603573114585
1.29927196054587
1.30276968798042
1.3064449175377
1.31028478319231
1.31468508961713
1.31802398075929
1.32150842612431
1.3244966694361
1.3271543792621
1.32918901404745
1.3304228864094
1.33044278761864
1.32922965069405
1.32647147293812
1.32216782902811
1.31616908942856
1.30898409220147
1.3000628661057
1.28879261004251
1.27431698025219
1.25485826763326
1.22771492612679
1.1883828169661
1.13636653359078
1.07084298446891
0.989368144655662
0.904262930232646
0.825703732585876
0.817139917115181
0.829578573247734
0.87465544695043
0.893669697162347
0.905761317027703
0.90245073647892
0.935424812422153
0.964754765952024
0.985372816410236
0.996752788220798
1.00529046322145
1.01011902551487
1.0145494432301
1.01795242195967
1.02070151683194
1.02295232715671
1.02478435324273
1.02627901605769
1.02751892330765
1.02867446701198
1.02985368716716
1.03112670683667
1.03256466644346
1.03418458774759
1.03590712553216
1.03764756161341
1.03942113851647
1.04115487650466
1.04283620538869
1.04446785439279
1.04573390468457
1.04784213275203
1.05105517641915
1.05516427610672
1.06002835485073
1.0654606964217
1.07134932094407
1.07758246154684
1.08407560412017
1.09075221256234
1.09754690643066
1.10440177772475
1.11126620844054
1.11809621965228
1.12485401195886
1.13150771241798
1.13803090674689
1.14440230073932
1.15060523157126
1.15662723646111
1.16245956210329
1.16809671165119
1.17353598652274
1.1787770694631
1.18382163901757
1.1886730042319
1.19333579116083
1.19781566190647
1.20211908615867
1.20625311903312
1.21022525362209
1.21404325216003
1.2177150447982
1.22124865786696
1.2246521079608
1.22793337759129
1.23110035974147
1.23416083759235
1.23712246953234
1.23999278641918
1.24277919557875
1.2454889961791
1.24812939647151
1.25070754715518
1.25323056696518
1.25570560050513
1.25813984270074
1.26054064204307
1.26291549749451
1.26527226513073
1.26761904796177
1.26996466480749
1.27231820021909
1.27469015867205
1.27709106559042
1.27953453388695
1.28203273083523
1.28460463390637
1.28726309926009
1.29003807988139
1.292938312205
1.29601599549379
1.29925695380576
1.30275241637966
1.30641892006511
1.31022035016355
1.31457310999102
1.31785158833665
1.32126842225444
1.32416255589269
1.32671250587209
1.32861691131148
1.32970557472885
1.32957449429236
1.32821259375854
1.32531209488883
1.32088270431334
1.3147742053804
1.30745646716519
1.2983514823672
1.28684154455061
1.27204086269669
1.25215285152458
1.22453010883134
1.18491200089228
1.13296670376949
1.06811338010554
0.988580813407633
0.906968292032729
0.832280517505851
0.823766146426943
0.834097392443396
0.876632163705426
0.894939325694687
0.907464568046935
0.904909105457209
0.936823407498282
0.965488643134845
0.985739324998628
0.996864792458546
1.00549747635434
1.01015819736503
1.01446720789945
1.01788891409488
1.02066721731453
1.02295150000446
1.02481453589436
1.02633358492079
1.02758322597858
1.02872186471632
1.02986410197172
1.03108114233334
1.0324502381253
1.03399340776696
1.03565040940653
1.0373385863658
1.03907399086375
1.0407863991542
1.04247498473843
1.04412281333016
1.0455428148825
1.04775172085605
1.05098600218603
1.05510261510748
1.059949749467
1.06536070798499
1.07122349706921
1.07743067566784
1.08389819844576
1.09055059663508
1.0973227388905
1.10415704872957
1.11100301624584
1.11781675293588
1.12456046721624
1.13120226321776
1.13771566222239
1.14407928122047
1.15027634594923
1.15629426785405
1.16212415772019
1.16776037781887
1.17320008690844
1.17844283109603
1.18349015463422
1.18834523327188
1.19301257196177
1.19749771966692
1.20180704228096
1.20594750123272
1.20992650455845
1.21375174028654
1.21743107341521
1.22097247188658
1.22438390315545
1.22767330728862
1.23084854161337
1.23391736023094
1.23688739817665
1.23976616835517
1.24256106503572
1.24527937888254
1.2479283138
1.25051502008642
1.2530466196039
1.25553026362839
1.25797315662608
1.2603826600056
1.26276628743606
1.26513191327977
1.26748765823015
1.26984236334187
1.27220512930284
1.27458648602395
1.2769969547979
1.27945017000387
1.28195822539558
1.28454007889037
1.28720827117693
1.28999261149137
1.29290097885826
1.29598487434322
1.29922822230054
1.30271842156628
1.30637204886778
1.31013309876017
1.31443851912704
1.31765632751369
1.32100389327523
1.3238012599524
1.3262389096548
1.32800777241885
1.32894589646474
1.32865820774256
1.32714156098024
1.32409273489212
1.31953072869999
1.31330268960861
1.30583982511868
1.29653789260452
1.28477376088498
1.26963287281583
1.2493050192213
1.22120643855468
1.18132577414803
1.12949758770849
1.06539435859112
0.987903556968253
0.909790305936246
0.838855569501345
0.83036277915979
0.838688145755216
0.878730511491918
0.896322537276435
0.909227107291395
0.907400124685339
0.938153364443557
0.966208977744238
0.986154528387274
0.997040092119544
1.00569420054373
1.01028996125392
1.01441690772373
1.01783585788636
1.02063880957096
1.02295518076985
1.02484875050085
1.02639245931161
1.0276528205665
1.0287758634636
1.0298822094689
1.03104367603072
1.03234390849615
1.03380954864624
1.03539928921176
1.03703313112789
1.03872891600157
1.04041882879799
1.04211575216723
1.04378057243524
1.0453496307238
1.04765282418862
1.0509099868659
1.05503646784528
1.05986809672026
1.0652590432027
1.07109673209861
1.07727851298753
1.08372071178391
1.09034906363577
1.09709868193354
1.10391236042158
1.11073970487309
1.11753693399934
1.12426627453965
1.13089582031366
1.13739903948017
1.14375447163003
1.14994524163576
1.15595864495105
1.16178566519623
1.1674205311689
1.17286026691509
1.17810428809471
1.18315400329803
1.18801246103125
1.19268404664921
1.19717419715878
1.20148917505506
1.20563584792007
1.20962153811871
1.21345385837589
1.21714060713973
1.22068969243799
1.22410903085116
1.22740651813771
1.23058997409217
1.23366712178084
1.23664557092055
1.23953281448601
1.24233623170305
1.24506310271793
1.2477206250343
1.25031594640347
1.25285618955829
1.25534850996417
1.25780011891466
1.26021838753434
1.262610840587
1.26498536609527
1.26735009715153
1.26971388968022
1.27208585187951
1.27447652638328
1.27689641475888
1.27935914454002
1.28187671088525
1.28446801070217
1.28714523056991
1.28993793559233
1.29285308055956
1.2959412832872
1.29918451502163
1.30266642176318
1.30630300950464
1.31002159349257
1.31427950119976
1.31743605101965
1.32071264109338
1.32341096045492
1.32573229268412
1.32736093695167
1.32814376936951
1.32769440217347
1.32601751762839
1.32281469815593
1.31811324905432
1.31175575565649
1.30413525996617
1.29462315284494
1.28259046983141
1.26709500543178
1.24631854338286
1.21775063556961
1.17763483012708
1.12597490261996
1.06270584253596
0.987354959407327
0.912737327315681
0.845426701157305
0.836924068084287
0.843345911989153
0.880949079305804
0.897821308712226
0.911047145985407
0.909921304248633
0.939438141376987
0.966886824690591
0.986595844278802
0.997281891991604
1.0058622432085
1.01051707317134
1.01441372640928
1.01779740875938
1.02061758396556
1.02296389003971
1.02488708710267
1.02645550137295
1.0277275467519
1.02883643748811
1.02990822287644
1.03101480546141
1.03224646554134
1.03363411357365
1.03515514457707
1.03673277838949
1.0383876429695
1.04005399387614
1.04176019347966
1.04344266561436
1.04515553045325
1.04754669235459
1.05082821063707
1.05496671388894
1.05978440642505
1.06515687955182
1.07097042020993
1.07712758223805
1.08354495562214
1.09014960855476
1.09687689064709
1.10367000317005
1.11047867462274
1.11725924812063
1.12397398020587
1.13059096842353
1.13708364087367