/*--------------------------------*- C++ -*----------------------------------*\
  =========                 |
  \\      /  F ield         | OpenFOAM: The Open Source CFD Toolbox
   \\    /   O peration     | Website:  https://openfoam.org
    \\  /    A nd           | Version:  7
     \\/     M anipulation  |
\*---------------------------------------------------------------------------*/
FoamFile
{
    version     2.0;
    format      ascii;
    class       surfaceScalarField;
    location    "5000";
    object      phi;
}
// * * * * * * * * * * * * * * * * * * * * * * * * * * * * * * * * * * * * * //

dimensions      [0 3 -1 0 0 0 0];

internalField   nonuniform List<scalar> 
30950
(
9.01419080378704e-05
-1.44691737326295e-05
8.89220149752267e-05
1.21989113698073e-06
3.46514048018795e-05
5.42706144955437e-05
-1.55916283091169e-05
5.02430271129734e-05
-3.38189267087381e-05
1.82272964128159e-05
-2.77879489813549e-05
-6.03097554623636e-06
-2.160127147969e-05
-6.18667730362014e-06
-1.77550298926731e-05
-3.84624142018129e-06
-1.6421410322685e-05
-1.33362016556042e-06
-1.58102146470824e-05
-6.1119533281389e-07
-1.58871263907187e-05
7.6911758271788e-08
-1.64303091654628e-05
5.4318288565296e-07
-1.74014662675326e-05
9.71156875019256e-07
-1.9079586126491e-05
1.67812006129255e-06
-2.17232041469459e-05
2.64361798280839e-06
-2.54133875712368e-05
3.69018344007771e-06
-2.97580486436862e-05
4.34466095158029e-06
-3.46577757833519e-05
4.8997272604671e-06
-3.99396174060319e-05
5.28184152214157e-06
-4.5169346445327e-05
5.22972914568222e-06
-4.98698499496069e-05
4.70050349787027e-06
-5.4342652794305e-05
4.47280285484831e-06
-5.86624221460627e-05
4.31976933575634e-06
-6.22393061210925e-05
3.57688398096744e-06
-6.48863095955252e-05
2.64700348014133e-06
-6.6508573874987e-05
1.62226429679612e-06
-6.70777459720905e-05
5.69172016838867e-07
-8.04914785877324e-05
1.34137326944883e-05
-9.93048585383999e-05
1.88133799025547e-05
-0.00011173157597423
1.24267175301629e-05
-0.000119365766392073
7.63419042225814e-06
-0.00012399143210192
4.62566570509695e-06
-0.000126507683903386
2.51625177357273e-06
-0.000127368126103615
8.6044213829301e-07
-0.000126886416630124
-4.81709603506693e-07
-0.000125285735583044
-1.60068096229462e-06
-0.000122741885175277
-2.54385043454703e-06
-0.000119393631084417
-3.34825393642039e-06
-0.000115362776722429
-4.03085445759554e-06
-0.000110758831674765
-4.60394498878513e-06
-0.000105681572103698
-5.07725965163967e-06
-0.000100222359786886
-5.45921223132255e-06
-9.44643580736044e-05
-5.75800191590417e-06
-8.84828847839435e-05
-5.98147325687906e-06
-8.23454377271884e-05
-6.13744714543031e-06
-7.61119761998429e-05
-6.23346133512778e-06
-6.98351594402969e-05
-6.27681683113549e-06
-6.35607566109217e-05
-6.27440265619158e-06
-5.73280781074977e-05
-6.23267863418733e-06
-5.11704984359332e-05
-6.15757953431416e-06
-4.51159892508964e-05
-6.05450916636691e-06
-3.91876680053298e-05
-5.9283210160633e-06
-3.340435206817e-05
-5.78331581071655e-06
-2.77810717624107e-05
-5.62328014094639e-06
-2.23296046491911e-05
-5.45146689944331e-06
-1.70588953093993e-05
-5.27070927150916e-06
-1.19755599207351e-05
-5.08333487926024e-06
-7.08423676308587e-06
-4.89132315836911e-06
-2.38784290438723e-06
-4.69639355448214e-06
2.11179478452238e-06
-4.4996380650542e-06
6.4136576973236e-06
-4.30186250897515e-06
1.05178906271425e-05
-4.10423323459584e-06
1.44253826058583e-05
-3.90749196942923e-06
1.81371851359644e-05
-3.71180305866532e-06
2.16545346148523e-05
-3.51734964164469e-06
2.49786928409675e-05
-3.3241585147881e-06
2.81108011110565e-05
-3.13210841719591e-06
3.10517354259529e-05
-2.940934368519e-06
3.38019750609725e-05
-2.75023974245867e-06
3.63614540215848e-05
-2.55947892815962e-06
3.87294315334898e-05
-2.36797761017191e-06
4.09043082632902e-05
-2.17487669824507e-06
4.28834930248024e-05
-1.97918489434301e-06
4.46631255844646e-05
-1.77963253962339e-06
4.62379557677732e-05
-1.5748303326468e-06
4.76008463518175e-05
-1.36289053069843e-06
4.87427537504791e-05
-1.1419074351056e-06
4.96517096337458e-05
-9.08955751687679e-07
5.03132089736448e-05
-6.61499345441634e-07
5.0708121833238e-05
-3.94912797987757e-07
5.0814757799209e-05
-1.06636043709539e-07
5.06048918947872e-05
2.09865902768935e-07
5.00479734924137e-05
5.56918302845647e-07
4.90927441155916e-05
9.55229426948241e-07
4.76859521109205e-05
1.40679198305459e-06
4.57322751785142e-05
1.95367702140527e-06
4.31514077617409e-05
2.58086739806374e-06
3.97622030704455e-05
3.38920473370985e-06
3.54471325921807e-05
4.31507047431283e-06
2.9821673771849e-05
5.62545885351863e-06
2.26414287106372e-05
7.18024507843027e-06
1.28260879513953e-05
9.81534075492653e-06
5.67659591968541e-06
7.14949200765915e-06
8.25296118061353e-06
-2.57636523505715e-06
1.12368453837445e-05
-2.98388423886365e-06
1.5749091499845e-05
-4.51224606810843e-06
2.085150577064e-05
-5.10241426362674e-06
2.67147883612344e-05
-5.86328258200671e-06
3.35455458706864e-05
-6.8307575139573e-06
4.16105682645618e-05
-8.06502238703808e-06
4.98320423712769e-05
-8.2214741245419e-06
5.81747399430828e-05
-8.34269761086965e-06
6.62517798030312e-05
-8.0770400060557e-06
7.36506515201365e-05
-7.39887148568806e-06
7.87725162198881e-05
-5.1218646778618e-06
8.2678353009095e-05
-3.90583676055454e-06
8.61461881411343e-05
-3.46783517753969e-06
8.95552056651256e-05
-3.40901796255781e-06
9.3846105858932e-05
-4.29089968066153e-06
0.000100956199270553
-7.11009333535028e-06
0.000113434124643334
-1.24779253132632e-05
0.000129385358207988
-1.59512334795884e-05
0.00015036265912643
-2.09773008929248e-05
0.00018037289845305
-3.00102393200517e-05
0.000215760960125209
-3.53880616189842e-05
0.000232821532333046
-1.7060572139847e-05
0.000183756457322637
4.90650749434281e-05
0.00012004179023327
6.37146680474004e-05
7.2090714515856e-05
4.79510816501077e-05
-3.58202308457951e-06
0.00028181359686492
-2.50718592605928e-05
0.000273165099835566
9.86838676382249e-06
0.000160410678910566
0.000167025038436186
1.0870037671213e-05
0.000199783663177586
-6.99904579208532e-05
9.90877907434142e-05
-6.9980435499928e-05
-6.04099587865236e-06
-5.66833441016196e-05
-1.94837684491363e-05
-4.83800399036051e-05
-1.2149545403153e-05
-4.54323823163566e-05
-4.28127841570781e-06
-4.4741665218449e-05
-1.30191207982456e-06
-4.57375263033342e-05
1.07277286988493e-06
-4.8086658108761e-05
2.89231482927261e-06
-5.17516683414755e-05
4.63616686362304e-06
-5.74165267042072e-05
7.34297863069898e-06
-6.55733659883267e-05
1.08004572243711e-05
-7.61721690033238e-05
1.42889864716297e-05
-8.83681370103394e-05
1.6540628849097e-05
-0.000101791211125036
1.83228014792199e-05
-0.000115920487152406
1.94111174660096e-05
-0.000129896891983843
1.92061340610301e-05
-0.000143057554218324
1.78611657270219e-05
-0.000155728160760429
1.71434094040421e-05
-0.000167688961347329
1.62805699115186e-05
-0.000177919148837387
1.38070714749823e-05
-0.000186224568125034
1.09524227712544e-05
-0.000194246669045339
9.64436522810555e-06
-0.000205552461511311
1.18749644326796e-05
-0.00023216397096919
4.00252421996412e-05
-0.000260507960201475
4.71573691056107e-05
-0.00027694916852624
2.88679259071407e-05
-0.000284943784213613
1.56288061114584e-05
-0.000287861069900492
7.54295138923052e-06
-0.000287142159565287
1.79734142409816e-06
-0.000283658538770546
-2.62317868849177e-06
-0.000277977154272907
-6.16309416969231e-06
-0.000270500764163637
-9.07707102701647e-06
-0.000261532655544169
-1.15119590698236e-05
-0.00025132279300788
-1.35581163941795e-05
-0.000240084063682111
-1.52695838342859e-05
-0.000228003557694996
-1.6684450946181e-05
-0.000215247269503887
-1.7833547885343e-05
-0.0002019636493048
-1.87428323865767e-05
-0.000188285230372485
-1.94364209526072e-05
-0.000174330121767574
-1.99365818452202e-05
-0.000160202963992048
-2.0264604968688e-05
-0.000145995941994865
-2.04404832374846e-05
-0.000131789665731506
-2.04830931355598e-05
-0.000117654101144227
-2.04099671603498e-05
-0.000103649467387957
-2.02373124613202e-05
-8.98271527056303e-05
-1.99798941523394e-05
-7.62305961703905e-05
-1.96510657009175e-05
-6.28961435324466e-05
-1.92627735502733e-05
-4.98538701679808e-05
-1.88255891179392e-05
-3.71283498601683e-05
-1.83488003750809e-05
-2.47393931069845e-05
-1.78404235542717e-05
-1.27027144335269e-05
-1.73073879220174e-05
-1.03010557591709e-06
-1.67559434834406e-05
1.0268519051632e-05
-1.61899477957285e-05
2.11855884604952e-05
-1.56134628104687e-05
3.17165217018226e-05
-1.50305715003037e-05
4.18580027631876e-05
-1.44433433614181e-05
5.16078215981693e-05
-1.38540522222853e-05
6.096461088584e-05
-1.32642812418119e-05
6.99275490559303e-05
-1.26747414889014e-05
7.84960535788828e-05
-1.20858542343931e-05
8.66695069555976e-05
-1.1497612030667e-05
9.44469967767708e-05
-1.09095983017749e-05
0.000101827053147665
-1.03209907578324e-05
0.000108807386452846
-9.73057309617049e-06
0.000115384603416324
-9.13669586722591e-06
0.000121553912918684
-8.53728715855693e-06
0.000127308774371146
-7.92973812839333e-06
0.0001326405329611
-7.31094354925413e-06
0.000137537924092511
-6.67702365480772e-06
0.000141986590377377
-6.02349669397881e-06
0.000145968299240512
-5.34459936130372e-06
0.000149460294245913
-4.63390245889537e-06
0.000152433938586425
-3.88260001959558e-06
0.000154853869478938
-3.08143024011016e-06
0.000156675808046418
-2.21685133224702e-06
0.000157843137431427
-1.27396546748284e-06
0.00015829204517884
-2.39041843105045e-07
0.000157948337404942
9.00626023303275e-07
0.000156699189537729
2.20437732347513e-06
0.000154402527773381
3.70345373488252e-06
0.000150857031001693
5.49917384101339e-06
0.000145821595886776
7.61630250358646e-06
0.000138924613536316
1.02861871074672e-05
0.000129719824104476
1.35198599038931e-05
0.00011743326811194
1.79120148615312e-05
0.000100910906313575
2.37026068864215e-05
7.86090711775794e-05
3.21171758883512e-05
6.13356716469497e-05
2.44228915249537e-05
6.14206753781001e-05
-2.6613689518899e-06
6.6687147112472e-05
-8.25035599476979e-06
7.52653392586916e-05
-1.30904381872533e-05
8.54739926039956e-05
-1.53110676056581e-05
9.73424804751938e-05
-1.77317704490776e-05
0.000111253391160137
-2.07416682024793e-05
0.00012750017241885
-2.43118036425501e-05
0.000144706293095295
-2.54275948126265e-05
0.000162481673340971
-2.61180778812734e-05
0.000180219905735217
-2.58152724941235e-05
0.000196992191315347
-2.4171156931215e-05
0.000210358119599006
-1.84877929499386e-05
0.0002209757241027
-1.45234412509953e-05
0.00022992438790528
-1.24164990120119e-05
0.000238175130151622
-1.16597605024978e-05
0.000247441445001944
-1.35572142041732e-05
0.000261387747728846
-2.10563960126498e-05
0.000284814518583079
-3.59046961389075e-05
0.000316812775744146
-4.79494905928915e-05
0.000359946381868734
-6.41109070040687e-05
0.000419526996898657
-8.95908543694389e-05
0.000493020165025522
-0.0001088812297249
0.000547839696721708
-7.1880103784885e-05
0.000509458432237255
8.74463393121709e-05
0.00040669228382556
0.000166480817061382
0.000300708685870488
0.000153934683487934
2.59157491558371e-05
0.00044312961150297
-1.64024816652475e-05
0.000428614552036225
2.43834454488525e-05
0.000303728463696995
0.000291911128546067
8.50458323772155e-05
0.000418466291441823
-7.29901895377982e-05
0.000257123811672427
-9.95462293333834e-05
2.05150456036736e-05
-8.54796893257635e-05
-3.35503082310086e-05
-7.53731844436316e-05
-2.22560501043299e-05
-7.19106034565603e-05
-7.74385992604714e-06
-7.19486772521358e-05
-1.26383801210495e-06
-7.44237234416087e-05
3.54781907229551e-06
-7.90311524333724e-05
7.49974392284961e-06
-8.57618880321346e-05
1.13669022727818e-05
-9.54864489896398e-05
1.70675397397057e-05
-0.000108609973978423
2.39239821799858e-05
-0.000124662469287977
3.03414817916178e-05
-0.000142359875472934
3.42380349588212e-05
-0.000160909524537033
3.68724506104363e-05
-0.000179426844460463
3.79284373369742e-05
-0.000196925396007531
3.6704685658349e-05
-0.000212947175717936
3.3882945434321e-05
-0.000227836304836224
3.20325385262659e-05
-0.000241382952892689
2.98272179619801e-05
-0.000252974000022042
2.53981186064048e-05
-0.000262970044099654
2.09484668506427e-05
-0.000273462973115375
2.01372942496254e-05
-0.000288405050280475
2.68170415730105e-05
-0.000313103755213362
6.47239471560438e-05
-0.00033525995419334
6.93135680716029e-05
-0.000346294674401446
3.99026461406664e-05
-0.000349946311691003
1.92804434018784e-05
-0.000348971539995258
6.56817969240764e-06
-0.000344556335655816
-2.6178629216695e-06
-0.000337515851069159
-9.66366328972369e-06
-0.00032835233673963
-1.5326608530489e-05
-0.000317437157873803
-1.99922498722226e-05
-0.000305061500035016
-2.38876169152434e-05
-0.000291472607587599
-2.714700880581e-05
-0.000276882317296876
-2.9859874146781e-05
-0.000261478085084795
-3.20886831443785e-05
-0.000245426730564666
-3.38849024232883e-05
-0.000228877747621775
-3.52918153095783e-05
-0.000211964824006946
-3.63493446115498e-05
-0.000194807231974156
-3.7094173869465e-05
-0.000177510794406419
-3.75610425552455e-05
-0.000160168856103363
-3.7782421497758e-05
-0.000142863176520431
-3.77887727330324e-05
-0.000125664841691841
-3.76083019507394e-05
-0.000108635165811858
-3.72669883669448e-05
-9.18265969096829e-05
-3.67884630230274e-05
-7.52835972532344e-05
-3.61940653520701e-05
-5.90434976469524e-05
-3.55028731078965e-05
-4.31373151399684e-05
-3.47317715949542e-05
-2.75905322056654e-05
-3.38955832726614e-05
-1.24237956012644e-05
-3.3007160112229e-05
2.34641678226228e-06
-3.20776002900218e-05
1.67067716688348e-05
-3.11162982634529e-05
3.06469305613127e-05
-3.01301066883226e-05
4.41592119113795e-05
-2.91257440965601e-05
5.72378299522484e-05
-2.81091896186274e-05
6.98786574253753e-05
-2.70841707515339e-05
8.20787083302929e-05
-2.60541031930626e-05
9.38357943036158e-05
-2.50213672136053e-05
0.000105148239815253
-2.39871871142479e-05
0.000116014552596245
-2.29521670520544e-05
0.000126433131209072
-2.19161907089148e-05
0.000136401984666879
-2.08784517936762e-05
0.000145918449651608
-1.98374557571033e-05
0.000154978900520408
-1.87910239918691e-05
0.000163578441493824
-1.77362368357384e-05
0.000171710571798442
-1.66694174877598e-05
0.000179366807855308
-1.55859741801541e-05
0.000186536251888752
-1.44803876148277e-05
0.000193205076101522
-1.33458478642405e-05
0.000199355915539362
-1.21743361683654e-05
0.00020496710074406
-1.09557845542373e-05
0.00021001174584959
-9.67854757462749e-06
0.000214456534158617
-8.32738829817184e-06
0.000218260261838863
-6.88515792252885e-06
0.000221371967477232
-5.3285569572958e-06
0.000223728396983604
-3.6303949923193e-06
0.000225252597558955
-1.76324241914625e-06
0.000225849229303105
3.03994254033471e-07
0.000225392264002783
2.66134263627201e-06
0.00022371754045335
5.37817727827824e-06
0.000220605732438391
8.61098187771373e-06
0.000215769253178337
1.24527817597746e-05
0.000208809478865026
1.72459614317374e-05
0.000199170326152159
2.31590126160988e-05
0.000186051403487834
3.10309375333806e-05
0.000168076825520436
4.16771848590583e-05
0.000143528671769326
5.66653296392855e-05
0.000122674061071373
4.52775022175944e-05
0.000117922958380567
2.08973374636845e-06
0.000121464329320702
-1.17917269437318e-05
0.000129565067238196
-2.1191176091312e-05
0.000140407367399459
-2.61533677642305e-05
0.000153621956107267
-3.09463591537074e-05
0.000169533798975793
-3.6653511071421e-05
0.000188329339855613
-4.31073445195831e-05
0.000208902246936941
-4.60005018977955e-05
0.000230601107278219
-4.7816938231999e-05
0.000252785718461925
-4.79998837197571e-05
0.000274374848445621
-4.57602868462592e-05
0.000293098737050291
-3.72116815446118e-05
0.000308924213199165
-3.03489173903129e-05
0.000322760872240777
-2.62531580650683e-05
0.000335691329288468
-2.45902176950487e-05
0.000349452871777933
-2.73187565146127e-05
0.000367896502511209
-3.95000267098991e-05
0.000396217276443507
-6.42254700494594e-05
0.000434886241614421
-8.66184557316527e-05
0.000486066870785876
-0.000115291536159752
0.000553751246141014
-0.000157275229733202
0.000636616769623053
-0.000191746753190473
0.000708646472621806
-0.000143909806740949
0.000704063201394494
9.20296104682212e-05
0.000621239079798431
0.000249304939029276
0.00050924439760862
0.00026592936793403
8.33611563799754e-05
0.000554993269806243
5.94840375985263e-06
0.000537430277226289
4.19464375425074e-05
0.000423675951650168
0.000405665455092233
0.000180527379720789
0.000661614861317201
-4.17503793477021e-05
0.000479401570442189
-0.000110642962975858
8.94076303089505e-05
-0.000104189187152591
-4.00040838822898e-05
-9.52402059413112e-05
-3.1205031163932e-05
-9.2655050408763e-05
-1.0329015851154e-05
-9.41580856619781e-05
2.39197429641594e-07
-9.84521334213137e-05
7.84186685237823e-06
-0.000105265042267011
1.43126528578016e-05
-0.000114551709862607
2.06535697330754e-05
-0.000127064201507899
2.95800314897593e-05
-0.00014287306429931
3.97328449470018e-05
-0.000161096272077974
4.85646895783012e-05
-0.000180313201044367
5.34549638799466e-05
-0.000199685471557643
5.62447211627242e-05
-0.00021843519022557
5.66781559751901e-05
-0.000235865197222409
5.41346926823644e-05
-0.000251845517296331
4.98632655062133e-05
-0.000266725477795238
4.69124990271487e-05
-0.000280307231880002
4.34089720435397e-05
-0.000292218971697606
3.73098584250671e-05
-0.000302940569718465
3.16700648722302e-05
-0.000314180582423491
3.1377306957734e-05
-0.000329274106065085
4.19105652014376e-05
-0.000350347271013007
8.57971121161612e-05
-0.000367516193282839
8.64824903334829e-05
-0.000375227475793223
4.76139286634846e-05
-0.0003765703789362
2.06233465447885e-05
-0.000373649768510984
3.64756926655231e-06
-0.000367451276784172
-8.81635465118583e-06
-0.000358702286879679
-1.84126532010353e-05
-0.000347862564717798
-2.61663307080346e-05
-0.000335290720002202
-3.25640945775238e-05
-0.000321269298984401
-3.79090379373579e-05
-0.000306041464162734
-4.23748436105274e-05
-0.000289817426502261
-4.60839118191023e-05
-0.000272784448273701
-4.91216613666311e-05
-0.000255109923776131
-5.15594269305517e-05
-0.000236944338741483
-5.34574003346748e-05
-0.000218422621484534
-5.48710618911676e-05
-0.000199665388971852
-5.58514063785316e-05
-0.000180779855941915
-5.64465755962868e-05
-0.000161860743022512
-5.67015343982015e-05
-0.000142991145027049
-5.66583707385213e-05
-0.000124243415501884
-5.63560314606278e-05
-0.000105680058044892
-5.58303458396213e-05
-8.73546215145957e-05
-5.51138995421434e-05
-6.93125778679831e-05
-5.4236109001765e-05
-5.15921766540157e-05
-5.32232743061421e-05
-3.42252638844775e-05
-5.20986843562751e-05
-1.72380675461871e-05
-5.08827796007138e-05
-6.5188147798788e-07
-4.95933461660097e-05
1.55160217401411e-05
-4.82455035082388e-05
3.12517863304125e-05
-4.68520628106501e-05
4.65447500581329e-05
-4.54230704215692e-05
6.13867527506082e-05
-4.39677467612193e-05
7.57716227265801e-05
-4.2494059631568e-05
8.9694867719138e-05
-4.10074157039301e-05
0.000103153160726973
-3.95123962292394e-05
0.00011614398179862
-3.80121882782007e-05
0.000128665327345642
-3.65085327071832e-05
0.000140715372901653
-3.5002212616864e-05
0.000152292170945895
-3.34929887766205e-05
0.000163393360467963
-3.19796413242018e-05
0.000174015875363365
-3.04599706529333e-05
0.000184155643849356
-2.89307924853337e-05
0.000193807272167221
-2.73878651461483e-05
0.00020296369672659
-2.58258420545625e-05
0.000211615799591897
-2.42380770389578e-05
0.000219751958468741
-2.26165465032495e-05
0.000227357531003784
-2.09514203939917e-05
0.000234414215033148
-1.92310202126597e-05
0.00024089930332662
-1.74408728394411e-05
0.000246784701650519
-1.55639459022289e-05
0.000252035799276854
-1.35784859087528e-05
0.000256609851841871
-1.14592104876965e-05
0.000260454237690413
-9.1729427989994e-06
0.000263504154564493
-6.68031187314566e-06
0.000265677485746728
-3.93657360013647e-06
0.000266873025635085
-8.91545645221592e-07
0.000266964032863101
2.57033541522076e-06
0.000265783263944666
6.55894619365555e-06
0.000263114268270569
1.12799775613761e-05
0.000258666360877059
1.69006891518218e-05
0.000252054554484582
2.38577678289928e-05
0.00024272380157829
3.24897655218479e-05
0.00022993653811104
4.38182010024654e-05
0.000212447914225315
5.91658087466176e-05
0.000188583636544422
8.05296073198006e-05
0.000166982971509914
6.68781672498933e-05
0.000159237777722313
9.83492753652217e-06
0.000160785972517771
-1.33399217436834e-05
0.000167674249055544
-2.80794526240594e-05
0.000178073177949224
-3.65522966577269e-05
0.000191330785179211
-4.42039663831977e-05
0.00020764312213276
-5.29658480260065e-05
0.000227090540596697
-6.25547629830648e-05
0.000248731853635913
-6.76418149394849e-05
0.000271813372181809
-7.08984567829482e-05
0.000295676793471957
-7.18633050320304e-05
0.000319204194138651
-6.92876874864074e-05
0.000340362351130866
-5.83698385354968e-05
0.000358815052054339
-4.88016183129625e-05
0.000375334555438653
-4.27726614565819e-05
0.000390984166352508
-4.02398286829015e-05
0.000407415366955621
-4.37499570422745e-05
0.000428274542690672
-6.03592024339532e-05
0.000458543968900199
-9.44948962583434e-05
0.000499448790447341
-0.00012752327727237
0.000552840194784888
-0.000168682940496084
0.000621689480411801
-0.000226124515378439
0.000705110274363952
-0.000275167547144963
0.000781072876547316
-0.000219872408906625
0.000796422707886718
7.66797790538984e-05
0.000739601461409141
0.000306126185667631
0.000643216789849419
0.000362314040707444
0.000149233790251328
0.000636386830075062
3.43657171491403e-05
0.000616712184090225
6.1621083233244e-05
0.000518384072565102
0.000503993567311826
0.000277562000680712
0.000902436931889993
1.18933168523847e-05
0.000745070253897843
-0.00010400846199217
0.000205309409906311
-0.000112530980037294
-3.148156571125e-05
-0.000106724676107396
-3.70113349994382e-05
-0.00010566623948901
-1.13874527084955e-05
-0.000108855123229926
3.42808128496759e-06
-0.000114845743979009
1.38324876048092e-05
-0.000123382726274298
2.28496351994913e-05
-0.000134344134629551
3.16149780029168e-05
-0.00014829962534855
4.35355222709719e-05
-0.000165111011312971
5.65442308953602e-05
-0.000183806485432136
6.72601637011463e-05
-0.000203142622503185
7.27911009222233e-05
-0.000222431583558365
7.55336822415057e-05
-0.000241058077468026
7.53046498663359e-05
-0.000258496977066445
7.15735922974978e-05
-0.00027470458756189
6.60708760003477e-05
-0.000289925826820901
6.21337382874132e-05
-0.000303924445921631
5.74075911421527e-05
-0.000316410050839847
4.97954633439032e-05
-0.000327813973901085
4.30739879339479e-05
-0.000339429397741196
4.29927307999716e-05
-0.000353961236928606
5.64424043807379e-05
-0.000372229217735821
0.000104065092931174
-0.000386243884162702
0.000100497156755754
-0.000392016107994944
5.33861525039424e-05
-0.000392022275670407
2.06295142202795e-05
-0.000387947183034688
-4.27523369543816e-07
-0.00038066503497753
-1.60985027101199e-05
-0.000370849186283317
-2.82285018996344e-05
-0.000358939276696176
-3.80762403050544e-05
-0.000345286968087243
-4.62164031797819e-05
-0.000330172752200436
-5.30232538261085e-05
-0.000313839750436127
-5.87078453635872e-05
-0.000296499587708605
-6.34240745532038e-05
-0.000278341571032221
-6.72796780385692e-05
-0.000259535450833633
-7.03655471344211e-05
-0.000240234149507741
-7.27587016542587e-05
-0.000220575023044892
-7.45301883673377e-05
-0.000200681024301437
-7.57454051188311e-05
-0.000180661582532431
-7.64660173705589e-05
-0.000160613481540975
-7.6749635375725e-05
-0.00014062171956057
-7.66501327223024e-05
-0.000120760386498463
-7.62173645103294e-05
-0.000101093557061769
-7.54971752825635e-05
-8.16761890685858e-05
-7.4531267524364e-05
-6.25550087103532e-05
-7.33572893569248e-05
-4.37693741751132e-05
-7.20089088254655e-05
-2.53521043500003e-05
-7.05159541707335e-05
-7.33026114829016e-06
-6.89046227899117e-05
1.0274022978898e-05
-6.7197630278082e-05
2.74427857257747e-05
-6.54142662487459e-05
4.41616883583521e-05
-6.35709654113455e-05
6.04196116380755e-05
-6.16809937004531e-05
7.62080119356937e-05
-5.97561470393946e-05
9.15203777067886e-05
-5.78064254247354e-05
0.000106351903474366
-5.58389414482579e-05
0.000120698992704486
-5.38594854800111e-05
0.000134558885268435
-5.18720808430699e-05
0.000147929352927243
-4.98790004011085e-05
0.000160808355949385
-4.78812156522137e-05
0.00017319373262152
-4.58783654702801e-05
0.000185082899986087
-4.38688087013376e-05
0.000196472554383529
-4.18496250569174e-05
0.000207358362695237
-3.9816600807283e-05
0.000217734638678698
-3.77641411299073e-05
0.000227593986587781
-3.5685189972552e-05
0.00023692691028231
-3.35710007334793e-05
0.000245721353458639
-3.14109896905281e-05
0.000253962180628731
-2.91922475643515e-05
0.000261630524330489
-2.68993639265807e-05
0.000268703045867665
-2.45133943738519e-05
0.000275150931247755
-2.2011831286226e-05
0.000280938792058926
-1.93663467112764e-05
0.000286023009042586
-1.65434274723259e-05
0.000290350013275214
-1.34999470283129e-05
0.00029385396116442
-1.0184259768044e-05
0.000296451058324238
-6.53367076060593e-06
0.000298036308413814
-2.4767957426923e-06
0.000298481699146232
2.12494468653672e-06
0.000297620820613082
7.41982472487206e-06
0.000295240605823625
1.36601923572038e-05
0.000291053914324744
2.10873806499272e-05
0.000284689275867805
3.02224062893249e-05
0.000275611871342241
4.15671700474715e-05
0.000263137474582987
5.62925977638346e-05
0.00024617656106946
7.61267222619817e-05
0.000223211466429074
0.000103494701960653
0.000201655734723007
8.84338989550121e-05
0.000192236786551104
1.92538757108662e-05
0.000192264689992473
-1.33678251871832e-05
0.000198117966533735
-3.39327291612219e-05
0.000208010757805648
-4.64450879285997e-05
0.000221128978482825
-5.73221870590652e-05
0.000237553631774997
-6.93905013177757e-05
0.000257272938312835
-8.22740695194842e-05
0.000279415510123584
-8.97843867504333e-05
0.000303182472669629
-9.4665419330323e-05
0.00032788369560005
-9.65645279734723e-05
0.00035237157653191
-9.37755683975705e-05
0.000374766961549472
-8.07652235490489e-05
0.000394625327826295
-6.86599845861437e-05
0.000412637527583568
-6.07848612145807e-05
0.000429840372700793
-5.74426738413936e-05
0.000447852000099
-6.17615843845705e-05
0.000470171040315754
-8.26782426370652e-05
0.000501540312504366
-0.000125864168439691
0.00054355140423121
-0.000169534368988985
0.000597942603666955
-0.000223074139924636
0.000667066328215721
-0.00029524823993196
0.000749857440136527
-0.000357958659061076
0.000825622624942547
-0.000295637593693492
0.000849185238280854
5.31171656789705e-05
0.000808567980703249
0.000346743443369989
0.000728553504088001
0.000442328518168614
0.000212983150396523
0.000700777056364703
6.43765287268419e-05
0.000679909138141781
8.24890012168619e-05
0.00059595704347174
0.000587945662398751
0.000369393276179144
0.00112900069811119
7.72126513884958e-05
0.00103725087864913
-8.46118907154772e-05
0.000367133952476544
-0.000114018848803775
-2.0746075339109e-06
-0.000112542767809884
-3.84874159144399e-05
-0.000112973760606676
-1.09564600799017e-05
-0.000117613802542525
8.06812329367721e-06
-0.000124999570108504
2.12182551826708e-05
-0.00013485691860794
3.27069837424551e-05
-0.000146994242482162
4.37523018202259e-05
-0.000161847932461514
5.83892122932836e-05
-0.000179209006847768
7.39053052699559e-05
-0.000198162594017698
8.62137508746463e-05
-0.000217659825157325
9.22883320438499e-05
-0.000237120893915089
9.49947510143325e-05
-0.00025601373240134
9.41974883408603e-05
-0.000273875002951005
8.94348628575124e-05
-0.00029064691804706
8.28427910952865e-05
-0.00030647239835915
7.79592186002444e-05
-0.00032108560809875
7.20208008803716e-05
-0.000334222493172569
6.29323484181646e-05
-0.000346230674955476
5.50821697171089e-05
-0.000358072613458163
5.48346693041345e-05
-0.000371934085292064
7.0303876209148e-05
-0.000388025232567847
0.000120156240212086
-0.000399780293887611
0.000112252218072067
-0.000404178963461456
5.77848220828136e-05
-0.000403221308191351
1.96718589498316e-05
-0.000398292164045608
-5.3566675156251e-06
-0.000390190291943748
-2.4200374812893e-05
-0.000379548445774551
-3.88703480714212e-05
-0.000366793460171841
-5.08312259142711e-05
-0.000352273562285358
-6.07363010619721e-05
-0.000336269855663108
-6.90269604502565e-05
-0.000319027276536869
-7.59504244831131e-05
-0.00030076023501151
-8.16911160836607e-05
-0.000281661098739561
-8.63788143081889e-05
-0.000261902776788233
-9.01238690898974e-05
-0.000241641273547732
-9.30202048911145e-05
-0.000221016897050131
-9.51545648745889e-05
-0.000200155368202568
-9.66069339651377e-05
-0.000179168684875449
-9.745270070262e-05
-0.000158155985718209
-9.77623345254739e-05
-0.000137204410084203
-9.76017083608182e-05
-0.000116389977441737
-9.70317971474011e-05
-9.5778488461502e-05
-9.61086642697215e-05
-7.54264327980412e-05
-9.48833231840223e-05
-5.53818865545359e-05
-9.34018356028131e-05
-3.56853892048265e-05
-9.17054061703629e-05
-1.63707838613315e-05
-8.98305595122685e-05
2.53395562164099e-06
-8.78093622703119e-05
2.10058642669108e-05
-8.56695389192817e-05
3.90263153871955e-05
-8.3434717370314e-05
5.65804648606474e-05
-8.11251148691621e-05
7.36567457662247e-05
-7.87572746093384e-05
9.02462321162649e-05
-7.63456333787379e-05
0.000106342088264477
-7.39022815875192e-05
0.00012193922180358
-7.14360749714762e-05
0.000137033793814028
-6.89540575014816e-05
0.000151622835590294
-6.64611226153929e-05
0.00016570392972528
-6.39600945529485e-05
0.000179274860294735
-6.1452146223853e-05
0.000192333294339513
-5.8936799522923e-05
0.000204876474058931
-5.64119884228106e-05
0.00021690090959057
-5.38740605874832e-05
0.000228402062585767
-5.1317753804501e-05
0.000239374015185695
-4.87360937257354e-05
0.000249809106127963
-4.61202809167578e-05
0.00025969753296478
-4.34594275668532e-05
0.000269026884696251
-4.07403414258009e-05
0.000277781617145636
-3.79469800109575e-05
0.000285942392343047
-3.50601391294744e-05
0.000293485337679808
-3.20563397067151e-05
0.000300381033586426
-2.89075271940631e-05
0.000306593422281498
-2.55787353997445e-05
0.000312078146999837
-2.20281521903322e-05
0.000316780830462091
-1.82026304878446e-05
0.000320634662146744
-1.40380914547494e-05
0.000323555154142908
-9.45416275594777e-06
0.000325435397990095
-4.35703959390664e-06
0.000326145934016533
1.41440866316789e-06
0.000325520985886264
8.04477285399005e-06
0.000323350346238382
1.58308320085989e-05
0.000319351845139731