/*--------------------------------*- C++ -*----------------------------------*\
  =========                 |
  \\      /  F ield         | OpenFOAM: The Open Source CFD Toolbox
   \\    /   O peration     | Website:  https://openfoam.org
    \\  /    A nd           | Version:  7
     \\/     M anipulation  |
\*---------------------------------------------------------------------------*/
FoamFile
{
    version     2.0;
    format      ascii;
    class       volVectorField;
    location    "5000";
    object      wallShearStress;
}
// * * * * * * * * * * * * * * * * * * * * * * * * * * * * * * * * * * * * * //

dimensions      [0 2 -2 0 0 0 0];

internalField   uniform (0 0 0);

boundaryField
{
    bottomWall
    {
        type            calculated;
        value           nonuniform List<vector> 
120
(
(-0.00504335973617987 4.06065314776485e-05 5.59727810024179e-23)
(-0.0060819133116498 0.000168100939131142 1.15215279140199e-19)
(-0.00433768248134563 0.000529627734678398 3.76158192263132e-37)
(-0.000365393821772138 0.00023526522831144 9.99488828855247e-19)
(0.00217931012820731 -0.00082184263580645 1.22807036971362e-22)
(0.00209506216801957 -0.00113324889384659 4.49991501040319e-22)
(0.00142327462577933 -0.000924281066613188 2.21253886162505e-18)
(0.00109220835922381 -0.000788456869106336 -2.24200640649647e-18)
(0.000862824291371738 -0.00066793998209502 6.35127702454453e-16)
(0.000756321638885435 -0.000598876539531911 6.36863435232673e-16)
(0.000666666649199527 -0.000527120630354353 -5.57390544953678e-22)
(0.000620023752262352 -0.000484378238886781 1.10997991607966e-21)
(0.000590303448745817 -0.000457484453180105 -1.11188528337162e-21)
(0.000583129408385975 -0.00044996757703856 2.27097606731859e-18)
(0.000602298573284784 -0.000463301175373994 2.26756932325407e-18)
(0.000649204352641836 -0.000496567620770285 2.20375328163893e-21)
(0.000711169958633628 -0.00053792942940674 2.23819456369471e-18)
(0.000775461453717807 -0.000571878465061481 -4.45274571380677e-18)
(0.000839874249547898 -0.000593262507204851 2.20542190822235e-18)
(0.000896820682189821 -0.000594908556176336 2.19899382495309e-18)
(0.000936155574579288 -0.000570475017087362 -2.17894009083207e-18)
(0.000961468037971102 -0.000522796792038069 2.1567358007933e-18)
(0.000985653986754008 -0.000463463088030838 8.69835135099793e-24)
(0.00100606297367612 -0.000395003311245901 -2.10574874963101e-18)
(0.00101981990476211 -0.000317548400515385 1.50463276905253e-35)
(0.00102790041250165 -0.000232316016333948 0)
(0.00100658072038513 -0.000138892513871325 1.4934183861651e-16)
(0.00109916390692848 -5.81984094550727e-05 1.49040923616876e-16)
(0.0013961609492734 -2.43818142003309e-05 -4.6323551887801e-25)
(0.0016499498879647 -2.19778501412727e-05 -1.34808534656824e-32)
(0.00179271027277594 -1.90438582732624e-05 -0)
(0.00188465866331818 -1.72805119676697e-05 1.55821307218008e-16)
(0.00193741982198647 -1.59605960076062e-05 1.57424997525452e-16)
(0.00196250817014774 -1.47473850933463e-05 0)
(0.00196455429812794 -1.35742009661996e-05 -1.81291310489808e-53)
(0.00194788861175415 -1.24287553122303e-05 -1.17785554039452e-51)
(0.00191545049149858 -1.1312035576817e-05 -0)
(0.00186961921867913 -1.02117403385313e-05 1.84097107145705e-21)
(0.00181235751500919 -9.13768173069259e-06 -1.53305698492638e-16)
(0.00174544697478923 -8.10033864108328e-06 -1.56386703353593e-16)
(0.00167049253696151 -7.10936925108878e-06 1.88168998305224e-21)
(0.0015889671151008 -6.17290548727742e-06 1.91486117379701e-21)
(0.00150221564451662 -5.29662267104951e-06 -1.92662374919863e-21)
(0.00141145972048881 -4.4841721615182e-06 1.96253211943537e-21)
(0.00131780047948263 -3.73708018478465e-06 -1.97730581149453e-21)
(0.00122221998846221 -3.05526183557874e-06 -0)
(0.00112558593630603 -2.43721213816853e-06 1.75813104616654e-16)
(0.00102865609769709 -1.88041489494398e-06 1.79413584764625e-16)
(0.000932085250592788 -1.38157243177818e-06 2.09470559495541e-21)
(0.000836432336525568 -9.36902202113756e-07 -1.05961661681272e-21)
(0.000742168881746937 -5.42319645682034e-07 1.07916616028797e-21)
(0.000649687211609918 -1.93612177525934e-07 -2.18344241490884e-21)
(0.000559309169672533 1.13421319042222e-07 1.84032694939778e-16)
(0.000471294151957742 3.82903829045601e-07 1.87156346503003e-16)
(0.000385847575729762 6.18717244487646e-07 5.67166613181107e-22)
(0.00030312766703376 8.24470510616378e-07 3.75487285470384e-42)
(0.000223253853222815 1.00490734758582e-06 -3.39294406370264e-32)
(0.000146311684320951 1.18738441857352e-06 2.95523629081061e-22)
(7.2358681083221e-05 1.37271942690548e-06 -4.47712562420329e-22)
(1.43241324414355e-06 1.53228715561714e-06 1.50359097131538e-22)
(-6.64492960818783e-05 1.66082493626569e-06 0)
(-0.000131283911925532 1.76690441969558e-06 -3.01363248035895e-22)
(-0.000193077402342804 1.85875156584733e-06 3.00028387010008e-22)
(-0.000251843565461953 1.93822850983758e-06 -3.49182403287435e-32)
(-0.00030760066733412 2.00723531113873e-06 -0)
(-0.00036036843523174 2.067468554844e-06 5.99080825122257e-22)
(-0.00041016589721802 2.1204431427764e-06 -5.9718942689753e-22)
(-0.000457009057584261 2.16750902738851e-06 -0)
(-0.000500908884586518 2.20987970402121e-06 0)
(-0.000541869002149511 2.24863262160096e-06 0)
(-0.00057988383753349 2.28475362117022e-06 0)
(-0.000614935771495112 2.31910523124246e-06 0)
(-0.000646993476053951 2.35251420923487e-06 -1.99738867001749e-16)
(-0.000676007521490725 2.38566014835959e-06 -3.98573125637069e-16)
(-0.000701909451783923 2.41928572861563e-06 -1.98790781175515e-16)
(-0.000724603544476185 2.45387210416112e-06 4.79687241087229e-21)
(-0.000743968829293976 2.49019491374818e-06 -2.40046310429697e-21)
(-0.000759841090621386 2.52842052020347e-06 2.40986330836875e-21)
(-0.000772025555456769 2.56961004632745e-06 -2.41157055727361e-21)
(-0.000780250998230968 2.61355460459064e-06 -2.0262853682118e-16)
(-0.000784232910964848 2.66285252580415e-06 -2.01323001232827e-16)
(-0.000783526184657271 2.71654765651551e-06 2.43594087995826e-21)
(-0.000777785870565934 2.7797337157411e-06 -2.45051224461259e-21)
(-0.000766297726189118 2.84228633861488e-06 4.91974739175838e-21)
(-0.000748407358029199 2.91448402492186e-06 -2.47099772941034e-21)
(-0.00072273724639206 2.97259543207257e-06 4.98364600387795e-21)
(-0.000688381345386534 3.05141144626518e-06 -1.00319944465906e-20)
(-0.000642647686709361 3.0859360276092e-06 5.0547584906529e-21)
(-0.000584570630500239 3.17304446271297e-06 5.11986875944352e-21)
(-0.000508089821334864 3.12689398234162e-06 -1.03568796340997e-20)
(-0.000413791517354921 3.11631149387402e-06 3.15394488348036e-26)
(-0.000281197223640666 2.33938019386362e-06 6.54569806541783e-25)
(-0.000112462192967899 -1.99575514574308e-06 -1.46936793852786e-39)
(-8.8917503361684e-05 -1.02849047508733e-05 -5.53216930143513e-21)
(-0.000149807407365403 -3.97762852750122e-05 1.42096409185296e-18)
(-0.000209775111274749 -7.6713649610517e-05 1.51958912032382e-23)
(-0.000299120988722196 -0.000133199494183814 2.78204511494026e-18)
(-0.000408432003267887 -0.000210665486451695 2.78690418023685e-18)
(-0.000547675536588677 -0.000316752999992711 -2.76931067375825e-18)
(-0.000734521247635687 -0.000461452520861427 2.7544616565939e-18)
(-0.000960999000054721 -0.000640062712918032 -2.73958320673409e-18)
(-0.00122079682225139 -0.000845713881048594 -2.72399269723891e-18)
(-0.00151099839679312 -0.0010726662029074 -1.41435480290938e-34)
(-0.00183145719949596 -0.00131489375974481 -6.01853107621011e-36)
(-0.00214206303225392 -0.00154579248474988 2.67907567425711e-18)
(-0.0024342390268874 -0.00177026372207778 2.66925554960338e-18)
(-0.00274746808229673 -0.00201873942967817 2.65952425938502e-18)
(-0.00310457613458324 -0.00231049837621009 2.64719526579552e-18)
(-0.00353957364973359 -0.00267154484428866 2.62975778791376e-18)
(-0.00412189634587074 -0.00315140437251234 -2.59744245691579e-18)
(-0.00502299276220871 -0.00383676913942465 -2.53884554014931e-18)
(-0.00627335577464166 -0.00465857246936598 2.44871323888798e-18)
(-0.00782091738276752 -0.00548941637591849 -2.31783592343465e-18)
(-0.00987111201162556 -0.00627520361867562 -2.13798415038925e-18)
(-0.0123418794800728 -0.00667444429484634 1.90100573416762e-18)
(-0.0147266107845161 -0.00602214180662247 1.50463276905253e-35)
(-0.0136340368049378 -0.00345862226642914 -7.13439661465648e-19)
(-0.00949005693022279 -0.00113459852059103 -1.88079096131566e-37)
(-0.00535720555714289 -0.000135800619943728 1.0050729241087e-19)
(-0.00408476801700494 3.53901015788097e-05 0)
)
;
    }
    topWall
    {
        type            calculated;
        value           nonuniform List<vector> 
120
(
(-0.00549486095042009 -1.61118308268987e-06 0)
(-0.00548889035476287 -1.53347750018868e-06 0)
(-0.00547892898853733 -1.46671461851099e-06 0)
(-0.00546529771072476 -1.40825093856378e-06 0)
(-0.00544829929870134 -1.35817474333598e-06 0)
(-0.00542825585691792 -1.31648174298695e-06 0)
(-0.00540549487470051 -1.28260890865846e-06 0)
(-0.00538033487514254 -1.25578962285034e-06 0)
(-0.00535307869430787 -1.23515476706703e-06 0)
(-0.00532400839119001 -1.21977969854577e-06 0)
(-0.00529338170270791 -1.20873014737715e-06 0)
(-0.00526142997905236 -1.20110060881845e-06 0)
(-0.00522835746470311 -1.19604084353747e-06 0)
(-0.00519434139466605 -1.19276980749781e-06 0)
(-0.00515953311267983 -1.19060862798302e-06 0)
(-0.00512406027864473 -1.18899131575004e-06 0)
(-0.00508802960720405 -1.18746562596591e-06 0)
(-0.00505152988992937 -1.18569008855738e-06 0)
(-0.00501463517396788 -1.18342798366085e-06 0)
(-0.00497740787728071 -1.18053478537058e-06 0)
(-0.00493990171968456 -1.1769478592004e-06 0)
(-0.00490216441998027 -1.17267125477665e-06 0)
(-0.00486423998366895 -1.16776412681137e-06 0)
(-0.00482617082876086 -1.16232637159357e-06 0)
(-0.0047879990008375 -1.15648102279909e-06 0)
(-0.0047497685018691 -1.15042217586584e-06 0)
(-0.00471152440373864 -1.14421703501743e-06 0)
(-0.00467331516451477 -1.13814246353525e-06 0)
(-0.00463519191719846 -1.132237809072e-06 0)
(-0.00459720891302285 -1.12676117797549e-06 0)
(-0.00455942299230091 -1.12173032413808e-06 0)
(-0.00452189368767595 -1.1173760686628e-06 0)
(-0.00448468207620968 -1.11366528318279e-06 0)
(-0.0044478508669192 -1.11080426969892e-06 0)
(-0.00441146310021816 -1.10870922265696e-06 0)
(-0.00437558200935171 -1.10755167496009e-06 0)
(-0.00434026998575978 -1.10722330678479e-06 0)
(-0.00430558828521591 -1.10783838232242e-06 0)
(-0.0042715957566571 -1.10929235076938e-06 0)
(-0.00423835021011503 -1.11165945986859e-06 0)
(-0.0042059038097516 -1.114806583942e-06 0)
(-0.00417431126123149 -1.11885294099511e-06 0)
(-0.00414361315580127 -1.12350071950777e-06 0)
(-0.00411386510082024 -1.12928517672224e-06 0)
(-0.00408509883600016 -1.13523292897828e-06 0)
(-0.00405734515188193 -1.14174405220683e-06 0)
(-0.00403064560337127 -1.14974367439799e-06 0)
(-0.00400504150148303 -1.1578833610361e-06 0)
(-0.00398054730052674 -1.16649791345982e-06 0)
(-0.00395718640003404 -1.17572449104788e-06 0)
(-0.00393498071695537 -1.18550674658291e-06 0)
(-0.00391394888856204 -1.19584478333069e-06 0)
(-0.0038941077491431 -1.20674283373956e-06 0)
(-0.00387547232339396 -1.21820906376006e-06 0)
(-0.00385805621260277 -1.23026166747183e-06 0)
(-0.00384187200656801 -1.24292561395165e-06 0)
(-0.00382693164788588 -1.25623360148935e-06 0)
(-0.00381324679754972 -1.27022480590839e-06 0)
(-0.00380082919220638 -1.28494552711868e-06 0)
(-0.00378969098571702 -1.30044793968891e-06 0)
(-0.00377984507770676 -1.31679054295721e-06 0)
(-0.00377130542075817 -1.33403696270394e-06 0)
(-0.0037640873133864 -1.35225636749689e-06 0)
(-0.00375820766502493 -1.37152229376322e-06 0)
(-0.00375368525629894 -1.39191256739247e-06 0)
(-0.00375054090420705 -1.413511070647e-06 0)
(-0.00374879794544318 -1.43643606083193e-06 0)
(-0.00374848339628314 -1.46075054802868e-06 0)
(-0.0037496224310422 -1.48675312955836e-06 0)
(-0.00375226203212788 -1.51487365043887e-06 0)
(-0.00375645356260008 -1.54487229722623e-06 0)
(-0.00376223096024941 -1.57644162330004e-06 0)
(-0.00376962695528833 -1.60965709654172e-06 0)
(-0.00377867730597922 -1.6446545931542e-06 0)
(-0.00378942142107408 -1.68151879511991e-06 0)
(-0.0038019010222956 -1.72031013178156e-06 0)
(-0.00381615974662939 -1.76108406457888e-06 0)
(-0.00383224290936404 -1.8038856678228e-06 0)
(-0.00385019704762669 -1.84874484396821e-06 0)
(-0.00387006929385306 -1.89567102175016e-06 0)
(-0.00389190660832722 -1.94464902387834e-06 0)
(-0.00391575483376193 -1.99563306235608e-06 0)
(-0.00394165759184113 -2.04854487956979e-06 0)
(-0.00396965512754719 -2.10327221094859e-06 0)
(-0.00399978306185951 -2.15966480375023e-06 0)
(-0.00403207101216724 -2.21753073083295e-06 0)
(-0.00406654109403154 -2.27663283884274e-06 0)
(-0.00410320629246017 -2.33668466842645e-06 0)
(-0.00414206870456606 -2.39734695931791e-06 0)
(-0.00418311766034307 -2.45822420554223e-06 0)
(-0.00422632773953943 -2.51886196193757e-06 0)
(-0.00427165668828369 -2.57874463675587e-06 0)
(-0.00431904329999838 -2.63729480341588e-06 0)
(-0.00436840521584638 -2.69387260383096e-06 0)
(-0.00441963685029339 -2.74777945610446e-06 0)
(-0.00447260719007257 -2.79825780038601e-06 0)
(-0.00452715809182814 -2.84450438466504e-06 0)
(-0.00458310212422243 -2.8856646584442e-06 0)
(-0.00464022192163963 -2.92086973574802e-06 0)
(-0.00469826769736552 -2.94920485059093e-06 0)
(-0.00475695944448634 -2.96981436093824e-06 0)
(-0.00481598205328969 -2.98176870349951e-06 0)
(-0.0048749958106603 -2.98438327714945e-06 0)
(-0.00493362058665785 -2.97670377347584e-06 0)
(-0.00499147087295383 -2.95871329546169e-06 0)
(-0.00504811692403293 -2.92892281520841e-06 0)
(-0.00510311559408278 -2.88776141144113e-06 0)
(-0.00515603412184092 -2.83609568462252e-06 0)
(-0.00520643876932476 -2.77290482459506e-06 0)
(-0.00525388380387058 -2.69915179829594e-06 0)
(-0.00529795347953347 -2.61586328348146e-06 0)
(-0.00533826359775683 -2.52419422899086e-06 0)
(-0.00537446961612078 -2.42560873121225e-06 0)
(-0.00540627834910094 -2.3218218682027e-06 0)
(-0.00543345500523949 -2.21469326500499e-06 0)
(-0.00545583270493823 -2.10624608242803e-06 0)
(-0.00547331234713344 -1.99842622551756e-06 0)
(-0.00548587372234527 -1.89330214430816e-06 0)
(-0.00549355741245479 -1.79250104963318e-06 0)
(-0.00549649602282903 -1.69834281924982e-06 0)
)
;
    }
    inlet_half0
    {
        type            cyclic;
    }
    inlet_half1
    {
        type            cyclic;
    }
    outlet_half0
    {
        type            cyclic;
    }
    outlet_half1
    {
        type            cyclic;
    }
    sideRight_half0
    {
        type            empty;
    }
    sideRight_half1
    {
        type            empty;
    }
    sideLeft_half0
    {
        type            empty;
    }
    sideLeft_half1
    {
        type            empty;
    }
}


// ************************************************************************* //
